unknown system                          
   1.0000000000000000     
     3.380942    0.000000    0.000000
     0.000000    3.380942    0.000000
     0.000000    0.000000    4.120540
   H 
     4
Direct
  0.000000  0.000000  0.908965
  0.000000  0.000000  0.091035
  0.500000  0.500000  0.408965
  0.500000  0.500000  0.591035

   28   28   32
  85.811      79.272      63.082      44.275      28.096      16.828      10.028      6.1501      3.9071      2.5370    
  1.6159     0.96937     0.59222     0.45851     0.44110     0.45851     0.59222     0.96937      1.6159      2.5370    
  3.9071      6.1501      10.028      16.828      28.096      44.275      63.082      79.272      79.272      73.355    
  58.650      41.397      26.440      15.978      9.6183      5.9526      3.8045      2.4752      1.5760     0.94761    
 0.58282     0.45265     0.43496     0.45265     0.58282     0.94761      1.5760      2.4752      3.8045      5.9526    
  9.6183      15.978      26.440      41.397      58.650      73.355      63.082      58.650      47.474      33.999    
  22.156      13.752      8.5258      5.4140      3.5173      2.2990      1.4626     0.88587     0.55597     0.43613    
 0.41794     0.43613     0.55597     0.88587      1.4626      2.2990      3.5173      5.4140      8.5258      13.752    
  22.156      33.999      47.474      58.650      44.275      41.397      33.999      24.924      16.817      10.908    
  7.0774      4.6638      3.0960      2.0338      1.2928     0.79393     0.51541     0.41163     0.39354     0.41163    
 0.51541     0.79393      1.2928      2.0338      3.0960      4.6638      7.0774      10.908      16.817      24.924    
  33.999      41.397      28.096      26.440      22.156      16.817      11.916      8.1833      5.6019      3.8399    
  2.6013      1.7148      1.0914     0.68572     0.46638     0.38245     0.36575     0.38245     0.46638     0.68572    
  1.0914      1.7148      2.6013      3.8399      5.6019      8.1833      11.916      16.817      22.156      26.440    
  16.828      15.978      13.752      10.908      8.1833      5.9666      4.2933      3.0387      2.0874      1.3798    
 0.88538     0.57615     0.41472     0.35152     0.33756     0.35152     0.41472     0.57615     0.88538      1.3798    
  2.0874      3.0387      4.2933      5.9666      8.1833      10.908      13.752      15.978      10.028      9.6183    
  8.5258      7.0774      5.6019      4.2933      3.2021      2.3103      1.5992      1.0642     0.69805     0.47764    
 0.36576     0.32099     0.31031     0.32099     0.36576     0.47764     0.69805      1.0642      1.5992      2.3103    
  3.2021      4.2933      5.6019      7.0774      8.5258      9.6183      6.1501      5.9526      5.4140      4.6638    
  3.8399      3.0387      2.3103      1.6816      1.1728     0.79563     0.54472     0.39763     0.32321     0.29212    
 0.28414     0.29212     0.32321     0.39763     0.54472     0.79563      1.1728      1.6816      2.3103      3.0387    
  3.8399      4.6638      5.4140      5.9526      3.9071      3.8045      3.5173      3.0960      2.6013      2.0874    
  1.5992      1.1728     0.83332     0.58898     0.43056     0.33769     0.28837     0.26549     0.25895     0.26549    
 0.28837     0.33769     0.43056     0.58898     0.83332      1.1728      1.5992      2.0874      2.6013      3.0960    
  3.5173      3.8045      2.5370      2.4752      2.2990      2.0338      1.7148      1.3798      1.0642     0.79563    
 0.58898     0.44468     0.35169     0.29452     0.26018     0.24130     0.23517     0.24130     0.26018     0.29452    
 0.35169     0.44468     0.58898     0.79563      1.0642      1.3798      1.7148      2.0338      2.2990      2.4752    
  1.6159      1.5760      1.4626      1.2928      1.0914     0.88538     0.69805     0.54472     0.43056     0.35169    
 0.29890     0.26253     0.23655     0.21978     0.21384     0.21978     0.23655     0.26253     0.29890     0.35169    
 0.43056     0.54472     0.69805     0.88538      1.0914      1.2928      1.4626      1.5760     0.96937     0.94761    
 0.88587     0.79393     0.68572     0.57615     0.47764     0.39763     0.33769     0.29452     0.26253     0.23693    
 0.21605     0.20153     0.19623     0.20153     0.21605     0.23693     0.26253     0.29452     0.33769     0.39763    
 0.47764     0.57615     0.68572     0.79393     0.88587     0.94761     0.59222     0.58282     0.55597     0.51541    
 0.46638     0.41472     0.36576     0.32321     0.28837     0.26018     0.23655     0.21605     0.19907     0.18746    
 0.18330     0.18746     0.19907     0.21605     0.23655     0.26018     0.28837     0.32321     0.36576     0.41472    
 0.46638     0.51541     0.55597     0.58282     0.45851     0.45265     0.43613     0.41163     0.38245     0.35152    
 0.32099     0.29212     0.26549     0.24130     0.21978     0.20153     0.18746     0.17856     0.17550     0.17856    
 0.18746     0.20153     0.21978     0.24130     0.26549     0.29212     0.32099     0.35152     0.38245     0.41163    
 0.43613     0.45265     0.44110     0.43496     0.41794     0.39354     0.36575     0.33756     0.31031     0.28414    
 0.25895     0.23517     0.21384     0.19623     0.18330     0.17550     0.17291     0.17550     0.18330     0.19623    
 0.21384     0.23517     0.25895     0.28414     0.31031     0.33756     0.36575     0.39354     0.41794     0.43496    
 0.45851     0.45265     0.43613     0.41163     0.38245     0.35152     0.32099     0.29212     0.26549     0.24130    
 0.21978     0.20153     0.18746     0.17856     0.17550     0.17856     0.18746     0.20153     0.21978     0.24130    
 0.26549     0.29212     0.32099     0.35152     0.38245     0.41163     0.43613     0.45265     0.59222     0.58282    
 0.55597     0.51541     0.46638     0.41472     0.36576     0.32321     0.28837     0.26018     0.23655     0.21605    
 0.19907     0.18746     0.18330     0.18746     0.19907     0.21605     0.23655     0.26018     0.28837     0.32321    
 0.36576     0.41472     0.46638     0.51541     0.55597     0.58282     0.96937     0.94761     0.88587     0.79393    
 0.68572     0.57615     0.47764     0.39763     0.33769     0.29452     0.26253     0.23693     0.21605     0.20153    
 0.19623     0.20153     0.21605     0.23693     0.26253     0.29452     0.33769     0.39763     0.47764     0.57615    
 0.68572     0.79393     0.88587     0.94761      1.6159      1.5760      1.4626      1.2928      1.0914     0.88538    
 0.69805     0.54472     0.43056     0.35169     0.29890     0.26253     0.23655     0.21978     0.21384     0.21978    
 0.23655     0.26253     0.29890     0.35169     0.43056     0.54472     0.69805     0.88538      1.0914      1.2928    
  1.4626      1.5760      2.5370      2.4752      2.2990      2.0338      1.7148      1.3798      1.0642     0.79563    
 0.58898     0.44468     0.35169     0.29452     0.26018     0.24130     0.23517     0.24130     0.26018     0.29452    
 0.35169     0.44468     0.58898     0.79563      1.0642      1.3798      1.7148      2.0338      2.2990      2.4752    
  3.9071      3.8045      3.5173      3.0960      2.6013      2.0874      1.5992      1.1728     0.83332     0.58898    
 0.43056     0.33769     0.28837     0.26549     0.25895     0.26549     0.28837     0.33769     0.43056     0.58898    
 0.83332      1.1728      1.5992      2.0874      2.6013      3.0960      3.5173      3.8045      6.1501      5.9526    
  5.4140      4.6638      3.8399      3.0387      2.3103      1.6816      1.1728     0.79563     0.54472     0.39763    
 0.32321     0.29212     0.28414     0.29212     0.32321     0.39763     0.54472     0.79563      1.1728      1.6816    
  2.3103      3.0387      3.8399      4.6638      5.4140      5.9526      10.028      9.6183      8.5258      7.0774    
  5.6019      4.2933      3.2021      2.3103      1.5992      1.0642     0.69805     0.47764     0.36576     0.32099    
 0.31031     0.32099     0.36576     0.47764     0.69805      1.0642      1.5992      2.3103      3.2021      4.2933    
  5.6019      7.0774      8.5258      9.6183      16.828      15.978      13.752      10.908      8.1833      5.9666    
  4.2933      3.0387      2.0874      1.3798     0.88538     0.57615     0.41472     0.35152     0.33756     0.35152    
 0.41472     0.57615     0.88538      1.3798      2.0874      3.0387      4.2933      5.9666      8.1833      10.908    
  13.752      15.978      28.096      26.440      22.156      16.817      11.916      8.1833      5.6019      3.8399    
  2.6013      1.7148      1.0914     0.68572     0.46638     0.38245     0.36575     0.38245     0.46638     0.68572    
  1.0914      1.7148      2.6013      3.8399      5.6019      8.1833      11.916      16.817      22.156      26.440    
  44.275      41.397      33.999      24.924      16.817      10.908      7.0774      4.6638      3.0960      2.0338    
  1.2928     0.79393     0.51541     0.41163     0.39354     0.41163     0.51541     0.79393      1.2928      2.0338    
  3.0960      4.6638      7.0774      10.908      16.817      24.924      33.999      41.397      63.082      58.650    
  47.474      33.999      22.156      13.752      8.5258      5.4140      3.5173      2.2990      1.4626     0.88587    
 0.55597     0.43613     0.41794     0.43613     0.55597     0.88587      1.4626      2.2990      3.5173      5.4140    
  8.5258      13.752      22.156      33.999      47.474      58.650      79.272      73.355      58.650      41.397    
  26.440      15.978      9.6183      5.9526      3.8045      2.4752      1.5760     0.94761     0.58282     0.45265    
 0.43496     0.45265     0.58282     0.94761      1.5760      2.4752      3.8045      5.9526      9.6183      15.978    
  26.440      41.397      58.650      73.355      87.025      80.054      62.923      43.534      27.576      16.534    
  9.8538      6.0360      3.8274      2.4810      1.5799     0.95078     0.58467     0.45446     0.43721     0.45446    
 0.58467     0.95078      1.5799      2.4810      3.8274      6.0360      9.8538      16.534      27.576      43.534    
  62.923      80.054      80.054      73.767      58.284      40.653      25.955      15.700      9.4504      5.8416    
  3.7266      2.4206      1.5412     0.92974     0.57558     0.44882     0.43131     0.44882     0.57558     0.92974    
  1.5412      2.4206      3.7266      5.8416      9.4504      15.700      25.955      40.653      58.284      73.767    
  62.923      58.284      46.765      33.352      21.759      13.515      8.3756      5.3113      3.4444      2.2484    
  1.4311     0.86996     0.54959     0.43283     0.41487     0.43283     0.54959     0.86996      1.4311      2.2484    
  3.4444      5.3113      8.3756      13.515      21.759      33.352      46.765      58.284      43.534      40.653    
  33.352      24.470      16.525      10.721      6.9500      4.5728      3.0308      1.9895      1.2661     0.78082    
 0.51017     0.40898     0.39114     0.40898     0.51017     0.78082      1.2661      1.9895      3.0308      4.5728    
  6.9500      10.721      16.525      24.470      33.352      40.653      27.576      25.955      21.759      16.525    
  11.713      8.0400      5.4971      3.7622      2.5456      1.6782      1.0704     0.67577     0.46240     0.38044    
 0.36399     0.38044     0.46240     0.67577      1.0704      1.6782      2.5456      3.7622      5.4971      8.0400    
  11.713      16.525      21.759      25.955      16.534      15.700      13.515      10.721      8.0400      5.8568    
  4.2086      2.9749      2.0427      1.3517     0.87023     0.56935     0.41208     0.35025     0.33650     0.35025    
 0.41208     0.56935     0.87023      1.3517      2.0427      2.9749      4.2086      5.8568      8.0400      10.721    
  13.515      15.700      9.8538      9.4504      8.3756      6.9500      5.4971      4.2086      3.1354      2.2609    
  1.5659      1.0446     0.68836     0.47384     0.36468     0.32081     0.31029     0.32081     0.36468     0.47384    
 0.68836      1.0446      1.5659      2.2609      3.1354      4.2086      5.4971      6.9500      8.3756      9.4504    
  6.0360      5.8416      5.3113      4.5728      3.7622      2.9749      2.2609      1.6464      1.1506     0.78365    
 0.53980     0.39672     0.32417     0.29375     0.28592     0.29375     0.32417     0.39672     0.53980     0.78365    
  1.1506      1.6464      2.2609      2.9749      3.7622      4.5728      5.3113      5.8416      3.8274      3.7266    
  3.4444      3.0308      2.5456      2.0427      1.5659      1.1506     0.82046     0.58328     0.42971     0.33980    
 0.29212     0.27004     0.26374     0.27004     0.29212     0.33980     0.42971     0.58328     0.82046      1.1506    
  1.5659      2.0427      2.5456      3.0308      3.4444      3.7266      2.4810      2.4206      2.2484      1.9895    
  1.6782      1.3517      1.0446     0.78365     0.58328     0.44382     0.35446     0.30006     0.26780     0.25024    
 0.24457     0.25024     0.26780     0.30006     0.35446     0.44382     0.58328     0.78365      1.0446      1.3517    
  1.6782      1.9895      2.2484      2.4206      1.5799      1.5412      1.4311      1.2661      1.0704     0.87023    
 0.68836     0.53980     0.42971     0.35446     0.30512     0.27213     0.24923     0.23468     0.22955     0.23468    
 0.24923     0.27213     0.30512     0.35446     0.42971     0.53980     0.68836     0.87023      1.0704      1.2661    
  1.4311      1.5412     0.95078     0.92974     0.86996     0.78082     0.67577     0.56935     0.47384     0.39672    
 0.33980     0.30006     0.27213     0.25110     0.23467     0.22346     0.21940     0.22346     0.23467     0.25110    
 0.27213     0.30006     0.33980     0.39672     0.47384     0.56935     0.67577     0.78082     0.86996     0.92974    
 0.58467     0.57558     0.54959     0.51017     0.46240     0.41208     0.36468     0.32417     0.29212     0.26780    
 0.24923     0.23467     0.22354     0.21631     0.21377     0.21631     0.22354     0.23467     0.24923     0.26780    
 0.29212     0.32417     0.36468     0.41208     0.46240     0.51017     0.54959     0.57558     0.45446     0.44882    
 0.43283     0.40898     0.38044     0.35025     0.32081     0.29375     0.27004     0.25024     0.23468     0.22346    
 0.21631     0.21253     0.21139     0.21253     0.21631     0.22346     0.23468     0.25024     0.27004     0.29375    
 0.32081     0.35025     0.38044     0.40898     0.43283     0.44882     0.43721     0.43131     0.41487     0.39114    
 0.36399     0.33650     0.31029     0.28592     0.26374     0.24457     0.22955     0.21940     0.21377     0.21139    
 0.21080     0.21139     0.21377     0.21940     0.22955     0.24457     0.26374     0.28592     0.31029     0.33650    
 0.36399     0.39114     0.41487     0.43131     0.45446     0.44882     0.43283     0.40898     0.38044     0.35025    
 0.32081     0.29375     0.27004     0.25024     0.23468     0.22346     0.21631     0.21253     0.21139     0.21253    
 0.21631     0.22346     0.23468     0.25024     0.27004     0.29375     0.32081     0.35025     0.38044     0.40898    
 0.43283     0.44882     0.58467     0.57558     0.54959     0.51017     0.46240     0.41208     0.36468     0.32417    
 0.29212     0.26780     0.24923     0.23467     0.22354     0.21631     0.21377     0.21631     0.22354     0.23467    
 0.24923     0.26780     0.29212     0.32417     0.36468     0.41208     0.46240     0.51017     0.54959     0.57558    
 0.95078     0.92974     0.86996     0.78082     0.67577     0.56935     0.47384     0.39672     0.33980     0.30006    
 0.27213     0.25110     0.23467     0.22346     0.21940     0.22346     0.23467     0.25110     0.27213     0.30006    
 0.33980     0.39672     0.47384     0.56935     0.67577     0.78082     0.86996     0.92974      1.5799      1.5412    
  1.4311      1.2661      1.0704     0.87023     0.68836     0.53980     0.42971     0.35446     0.30512     0.27213    
 0.24923     0.23468     0.22955     0.23468     0.24923     0.27213     0.30512     0.35446     0.42971     0.53980    
 0.68836     0.87023      1.0704      1.2661      1.4311      1.5412      2.4810      2.4206      2.2484      1.9895    
  1.6782      1.3517      1.0446     0.78365     0.58328     0.44382     0.35446     0.30006     0.26780     0.25024    
 0.24457     0.25024     0.26780     0.30006     0.35446     0.44382     0.58328     0.78365      1.0446      1.3517    
  1.6782      1.9895      2.2484      2.4206      3.8274      3.7266      3.4444      3.0308      2.5456      2.0427    
  1.5659      1.1506     0.82046     0.58328     0.42971     0.33980     0.29212     0.27004     0.26374     0.27004    
 0.29212     0.33980     0.42971     0.58328     0.82046      1.1506      1.5659      2.0427      2.5456      3.0308    
  3.4444      3.7266      6.0360      5.8416      5.3113      4.5728      3.7622      2.9749      2.2609      1.6464    
  1.1506     0.78365     0.53980     0.39672     0.32417     0.29375     0.28592     0.29375     0.32417     0.39672    
 0.53980     0.78365      1.1506      1.6464      2.2609      2.9749      3.7622      4.5728      5.3113      5.8416    
  9.8538      9.4504      8.3756      6.9500      5.4971      4.2086      3.1354      2.2609      1.5659      1.0446    
 0.68836     0.47384     0.36468     0.32081     0.31029     0.32081     0.36468     0.47384     0.68836      1.0446    
  1.5659      2.2609      3.1354      4.2086      5.4971      6.9500      8.3756      9.4504      16.534      15.700    
  13.515      10.721      8.0400      5.8568      4.2086      2.9749      2.0427      1.3517     0.87023     0.56935    
 0.41208     0.35025     0.33650     0.35025     0.41208     0.56935     0.87023      1.3517      2.0427      2.9749    
  4.2086      5.8568      8.0400      10.721      13.515      15.700      27.576      25.955      21.759      16.525    
  11.713      8.0400      5.4971      3.7622      2.5456      1.6782      1.0704     0.67577     0.46240     0.38044    
 0.36399     0.38044     0.46240     0.67577      1.0704      1.6782      2.5456      3.7622      5.4971      8.0400    
  11.713      16.525      21.759      25.955      43.534      40.653      33.352      24.470      16.525      10.721    
  6.9500      4.5728      3.0308      1.9895      1.2661     0.78082     0.51017     0.40898     0.39114     0.40898    
 0.51017     0.78082      1.2661      1.9895      3.0308      4.5728      6.9500      10.721      16.525      24.470    
  33.352      40.653      62.923      58.284      46.765      33.352      21.759      13.515      8.3756      5.3113    
  3.4444      2.2484      1.4311     0.86996     0.54959     0.43283     0.41487     0.43283     0.54959     0.86996    
  1.4311      2.2484      3.4444      5.3113      8.3756      13.515      21.759      33.352      46.765      58.284    
  80.054      73.767      58.284      40.653      25.955      15.700      9.4504      5.8416      3.7266      2.4206    
  1.5412     0.92974     0.57558     0.44882     0.43131     0.44882     0.57558     0.92974      1.5412      2.4206    
  3.7266      5.8416      9.4504      15.700      25.955      40.653      58.284      73.767      86.886      79.330    
  61.078      41.221      25.859      15.564      9.2892      5.6815      3.5900      2.3193      1.4780     0.89837    
 0.56304     0.44248     0.42560     0.44248     0.56304     0.89837      1.4780      2.3193      3.5900      5.6815    
  9.2892      15.564      25.859      41.221      61.078      79.330      79.330      72.572      56.231      38.370    
  24.350      14.783      8.9092      5.4976      3.4950      2.2631      1.4426     0.87928     0.55481     0.43740    
 0.42032     0.43740     0.55481     0.87928      1.4426      2.2631      3.4950      5.4976      8.9092      14.783    
  24.350      38.370      56.231      72.572      61.078      56.231      44.445      31.297      20.444      12.735    
  7.8957      4.9959      3.2289      2.1030      1.3417     0.82497     0.53117     0.42290     0.40550     0.42290    
 0.53117     0.82497      1.3417      2.1030      3.2289      4.9959      7.8957      12.735      20.444      31.297    
  44.445      56.231      41.221      38.370      31.297      22.968      15.558      10.110      6.5490      4.2970    
  2.8396      1.8625      1.1906     0.74380     0.49514     0.40110     0.38395     0.40110     0.49514     0.74380    
  1.1906      1.8625      2.8396      4.2970      6.5490      10.110      15.558      22.968      31.297      38.370    
  25.859      24.350      20.444      15.558      11.045      7.5821      5.1738      3.5304      2.3843      1.5741    
  1.0114     0.64807     0.45148     0.37505     0.35932     0.37505     0.45148     0.64807      1.0114      1.5741    
  2.3843      3.5304      5.1738      7.5821      11.045      15.558      20.444      24.350      15.564      14.783    
  12.735      10.110      7.5821      5.5156      3.9534      2.7882      1.9146      1.2728     0.82846     0.55140    
 0.40603     0.34816     0.33505     0.34816     0.40603     0.55140     0.82846      1.2728      1.9146      2.7882    
  3.9534      5.5156      7.5821      10.110      12.735      14.783      9.2892      8.9092      7.8957      6.5490    
  5.1738      3.9534      2.9397      2.1189      1.4722     0.99074     0.66308     0.46568     0.36465     0.32358    
 0.31360     0.32358     0.36465     0.46568     0.66308     0.99074      1.4722      2.1189      2.9397      3.9534    
  5.1738      6.5490      7.8957      8.9092      5.6815      5.4976      4.9959      4.2970      3.5304      2.7882    
  2.1189      1.5472      1.0893     0.75254     0.52941     0.39850     0.33189     0.30381     0.29654     0.30381    
 0.33189     0.39850     0.52941     0.75254      1.0893      1.5472      2.1189      2.7882      3.5304      4.2970    
  4.9959      5.4976      3.5900      3.4950      3.2289      2.8396      2.3843      1.9146      1.4722      1.0893    
 0.78705     0.57126     0.43254     0.35205     0.30984     0.29054     0.28508     0.29054     0.30984     0.35205    
 0.43254     0.57126     0.78705      1.0893      1.4722      1.9146      2.3843      2.8396      3.2289      3.4950    
  2.3193      2.2631      2.1030      1.8625      1.5741      1.2728     0.99074     0.75254     0.57126     0.44692    
 0.36923     0.32376     0.29803     0.28456     0.28029     0.28456     0.29803     0.32376     0.36923     0.44692    
 0.57126     0.75254     0.99074      1.2728      1.5741      1.8625      2.1030      2.2631      1.4780      1.4426    
  1.3417      1.1906      1.0114     0.82846     0.66308     0.52941     0.43254     0.36923     0.33100     0.30830    
 0.29414     0.28562     0.28265     0.28562     0.29414     0.30830     0.33100     0.36923     0.43254     0.52941    
 0.66308     0.82846      1.0114      1.1906      1.3417      1.4426     0.89837     0.87928     0.82497     0.74380    
 0.64807     0.55140     0.46568     0.39850     0.35205     0.32376     0.30830     0.30004     0.29513     0.29209    
 0.29099     0.29209     0.29513     0.30004     0.30830     0.32376     0.35205     0.39850     0.46568     0.55140    
 0.64807     0.74380     0.82497     0.87928     0.56304     0.55481     0.53117     0.49514     0.45148     0.40603    
 0.36465     0.33189     0.30984     0.29803     0.29414     0.29513     0.29816     0.30097     0.30208     0.30097    
 0.29816     0.29513     0.29414     0.29803     0.30984     0.33189     0.36465     0.40603     0.45148     0.49514    
 0.53117     0.55481     0.44248     0.43740     0.42290     0.40110     0.37505     0.34816     0.32358     0.30381    
 0.29054     0.28456     0.28562     0.29209     0.30097     0.30849     0.31142     0.30849     0.30097     0.29209    
 0.28562     0.28456     0.29054     0.30381     0.32358     0.34816     0.37505     0.40110     0.42290     0.43740    
 0.42560     0.42032     0.40550     0.38395     0.35932     0.33505     0.31360     0.29654     0.28508     0.28029    
 0.28265     0.29099     0.30208     0.31142     0.31505     0.31142     0.30208     0.29099     0.28265     0.28029    
 0.28508     0.29654     0.31360     0.33505     0.35932     0.38395     0.40550     0.42032     0.44248     0.43740    
 0.42290     0.40110     0.37505     0.34816     0.32358     0.30381     0.29054     0.28456     0.28562     0.29209    
 0.30097     0.30849     0.31142     0.30849     0.30097     0.29209     0.28562     0.28456     0.29054     0.30381    
 0.32358     0.34816     0.37505     0.40110     0.42290     0.43740     0.56304     0.55481     0.53117     0.49514    
 0.45148     0.40603     0.36465     0.33189     0.30984     0.29803     0.29414     0.29513     0.29816     0.30097    
 0.30208     0.30097     0.29816     0.29513     0.29414     0.29803     0.30984     0.33189     0.36465     0.40603    
 0.45148     0.49514     0.53117     0.55481     0.89837     0.87928     0.82497     0.74380     0.64807     0.55140    
 0.46568     0.39850     0.35205     0.32376     0.30830     0.30004     0.29513     0.29209     0.29099     0.29209    
 0.29513     0.30004     0.30830     0.32376     0.35205     0.39850     0.46568     0.55140     0.64807     0.74380    
 0.82497     0.87928      1.4780      1.4426      1.3417      1.1906      1.0114     0.82846     0.66308     0.52941    
 0.43254     0.36923     0.33100     0.30830     0.29414     0.28562     0.28265     0.28562     0.29414     0.30830    
 0.33100     0.36923     0.43254     0.52941     0.66308     0.82846      1.0114      1.1906      1.3417      1.4426    
  2.3193      2.2631      2.1030      1.8625      1.5741      1.2728     0.99074     0.75254     0.57126     0.44692    
 0.36923     0.32376     0.29803     0.28456     0.28029     0.28456     0.29803     0.32376     0.36923     0.44692    
 0.57126     0.75254     0.99074      1.2728      1.5741      1.8625      2.1030      2.2631      3.5900      3.4950    
  3.2289      2.8396      2.3843      1.9146      1.4722      1.0893     0.78705     0.57126     0.43254     0.35205    
 0.30984     0.29054     0.28508     0.29054     0.30984     0.35205     0.43254     0.57126     0.78705      1.0893    
  1.4722      1.9146      2.3843      2.8396      3.2289      3.4950      5.6815      5.4976      4.9959      4.2970    
  3.5304      2.7882      2.1189      1.5472      1.0893     0.75254     0.52941     0.39850     0.33189     0.30381    
 0.29654     0.30381     0.33189     0.39850     0.52941     0.75254      1.0893      1.5472      2.1189      2.7882    
  3.5304      4.2970      4.9959      5.4976      9.2892      8.9092      7.8957      6.5490      5.1738      3.9534    
  2.9397      2.1189      1.4722     0.99074     0.66308     0.46568     0.36465     0.32358     0.31360     0.32358    
 0.36465     0.46568     0.66308     0.99074      1.4722      2.1189      2.9397      3.9534      5.1738      6.5490    
  7.8957      8.9092      15.564      14.783      12.735      10.110      7.5821      5.5156      3.9534      2.7882    
  1.9146      1.2728     0.82846     0.55140     0.40603     0.34816     0.33505     0.34816     0.40603     0.55140    
 0.82846      1.2728      1.9146      2.7882      3.9534      5.5156      7.5821      10.110      12.735      14.783    
  25.859      24.350      20.444      15.558      11.045      7.5821      5.1738      3.5304      2.3843      1.5741    
  1.0114     0.64807     0.45148     0.37505     0.35932     0.37505     0.45148     0.64807      1.0114      1.5741    
  2.3843      3.5304      5.1738      7.5821      11.045      15.558      20.444      24.350      41.221      38.370    
  31.297      22.968      15.558      10.110      6.5490      4.2970      2.8396      1.8625      1.1906     0.74380    
 0.49514     0.40110     0.38395     0.40110     0.49514     0.74380      1.1906      1.8625      2.8396      4.2970    
  6.5490      10.110      15.558      22.968      31.297      38.370      61.078      56.231      44.445      31.297    
  20.444      12.735      7.8957      4.9959      3.2289      2.1030      1.3417     0.82497     0.53117     0.42290    
 0.40550     0.42290     0.53117     0.82497      1.3417      2.1030      3.2289      4.9959      7.8957      12.735    
  20.444      31.297      44.445      56.231      79.330      72.572      56.231      38.370      24.350      14.783    
  8.9092      5.4976      3.4950      2.2631      1.4426     0.87928     0.55481     0.43740     0.42032     0.43740    
 0.55481     0.87928      1.4426      2.2631      3.4950      5.4976      8.9092      14.783      24.350      38.370    
  56.231      72.572      78.897      71.718      54.557      36.324      22.720      13.786      8.2811      5.0794    
  3.2095      2.0723      1.3267     0.82099     0.53013     0.42318     0.40670     0.42318     0.53013     0.82099    
  1.3267      2.0723      3.2095      5.0794      8.2811      13.786      22.720      36.324      54.557      71.718    
  71.718      65.329      50.054      33.760      21.410      13.105      7.9457      4.9156      3.1247      2.0228    
  1.2961     0.80470     0.52311     0.41889     0.40231     0.41889     0.52311     0.80470      1.2961      2.0228    
  3.1247      4.9156      7.9457      13.105      21.410      33.760      50.054      65.329      54.557      50.054    
  39.239      27.474      18.029      11.315      7.0497      4.4682      2.8875      1.8821      1.2092     0.75839    
 0.50300     0.40676     0.39008     0.40676     0.50300     0.75839      1.2092      1.8821      2.8875      4.4682    
  7.0497      11.315      18.029      27.474      39.239      50.054      36.324      33.760      27.474      20.214    
  13.784      9.0101      5.8550      3.8442      2.5408      1.6712      1.0792     0.68943     0.47270     0.38893    