unknown system                          
   1.0000000000000000     
     3.380942    0.000000    0.000000
     0.000000    3.380942    0.000000
     0.000000    0.000000    4.120540
   H 
     4
Direct
  0.000000  0.000000  0.908965
  0.000000  0.000000  0.091035
  0.500000  0.500000  0.408965
  0.500000  0.500000  0.591035

   28   28   32
 0.85811397720E+02 0.79271513953E+02 0.63081947795E+02 0.44275292795E+02 0.28095616069E+02
 0.16827906699E+02 0.10028493601E+02 0.61501369938E+01 0.39070513739E+01 0.25370458992E+01
 0.16158693976E+01 0.96936594332E+00 0.59222430217E+00 0.45850914726E+00 0.44109715530E+00
 0.45850914726E+00 0.59222430217E+00 0.96936594332E+00 0.16158693976E+01 0.25370458992E+01
 0.39070513739E+01 0.61501369938E+01 0.10028493601E+02 0.16827906699E+02 0.28095616069E+02
 0.44275292795E+02 0.63081947795E+02 0.79271513953E+02 0.79271513953E+02 0.73354989250E+02
 0.58649615849E+02 0.41397325120E+02 0.26440439784E+02 0.15977832260E+02 0.96183377864E+01
 0.59526462262E+01 0.38045390253E+01 0.24751853261E+01 0.15760221482E+01 0.94761381322E+00
 0.58282252510E+00 0.45265084960E+00 0.43496109092E+00 0.45265084960E+00 0.58282252510E+00
 0.94761381322E+00 0.15760221482E+01 0.24751853261E+01 0.38045390253E+01 0.59526462262E+01
 0.96183377864E+01 0.15977832260E+02 0.26440439784E+02 0.41397325120E+02 0.58649615849E+02
 0.73354989250E+02 0.63081947795E+02 0.58649615849E+02 0.47474456659E+02 0.33999204601E+02
 0.22155685316E+02 0.13751922634E+02 0.85257765029E+01 0.54139798812E+01 0.35172555812E+01
 0.22989847033E+01 0.14626139130E+01 0.88586825250E+00 0.55597463966E+00 0.43612730901E+00
 0.41794383686E+00 0.43612730901E+00 0.55597463966E+00 0.88586825250E+00 0.14626139130E+01
 0.22989847033E+01 0.35172555812E+01 0.54139798812E+01 0.85257765029E+01 0.13751922634E+02
 0.22155685316E+02 0.33999204601E+02 0.47474456659E+02 0.58649615849E+02 0.44275292795E+02
 0.41397325120E+02 0.33999204601E+02 0.24923569363E+02 0.16817087650E+02 0.10908244674E+02
 0.70773505263E+01 0.46637970075E+01 0.30960257519E+01 0.20338425933E+01 0.12928415035E+01
 0.79392502992E+00 0.51540715124E+00 0.41163011284E+00 0.39354063897E+00 0.41163011284E+00
 0.51540715124E+00 0.79392502992E+00 0.12928415035E+01 0.20338425933E+01 0.30960257519E+01
 0.46637970075E+01 0.70773505263E+01 0.10908244674E+02 0.16817087650E+02 0.24923569363E+02
 0.33999204601E+02 0.41397325120E+02 0.28095616069E+02 0.26440439784E+02 0.22155685316E+02
 0.16817087650E+02 0.11916413651E+02 0.81833365507E+01 0.56018689395E+01 0.38399282140E+01
 0.26012673850E+01 0.17147831788E+01 0.10914414442E+01 0.68572151077E+00 0.46638355853E+00
 0.38244837008E+00 0.36575385948E+00 0.38244837008E+00 0.46638355853E+00 0.68572151077E+00
 0.10914414442E+01 0.17147831788E+01 0.26012673850E+01 0.38399282140E+01 0.56018689395E+01
 0.81833365507E+01 0.11916413651E+02 0.16817087650E+02 0.22155685316E+02 0.26440439784E+02
 0.16827906699E+02 0.15977832260E+02 0.13751922634E+02 0.10908244674E+02 0.81833365507E+01
 0.59666255630E+01 0.42933316944E+01 0.30386752721E+01 0.20874035390E+01 0.13797845471E+01
 0.88537973382E+00 0.57614689347E+00 0.41472290361E+00 0.35152347563E+00 0.33756456129E+00
 0.35152347563E+00 0.41472290361E+00 0.57614689347E+00 0.88537973382E+00 0.13797845471E+01
 0.20874035390E+01 0.30386752721E+01 0.42933316944E+01 0.59666255630E+01 0.81833365507E+01
 0.10908244674E+02 0.13751922634E+02 0.15977832260E+02 0.10028493601E+02 0.96183377864E+01
 0.85257765029E+01 0.70773505263E+01 0.56018689395E+01 0.42933316944E+01 0.32020805309E+01
 0.23102711180E+01 0.15991945271E+01 0.10642152498E+01 0.69805236511E+00 0.47763725478E+00
 0.36575559876E+00 0.32098810216E+00 0.31031293418E+00 0.32098810216E+00 0.36575559876E+00
 0.47763725478E+00 0.69805236511E+00 0.10642152498E+01 0.15991945271E+01 0.23102711180E+01
 0.32020805309E+01 0.42933316944E+01 0.56018689395E+01 0.70773505263E+01 0.85257765029E+01
 0.96183377864E+01 0.61501369938E+01 0.59526462262E+01 0.54139798812E+01 0.46637970075E+01
 0.38399282140E+01 0.30386752721E+01 0.23102711180E+01 0.16815975241E+01 0.11728398702E+01
 0.79562644990E+00 0.54472388995E+00 0.39762997165E+00 0.32320784298E+00 0.29211639669E+00
 0.28413906992E+00 0.29211639669E+00 0.32320784298E+00 0.39762997165E+00 0.54472388995E+00
 0.79562644990E+00 0.11728398702E+01 0.16815975241E+01 0.23102711180E+01 0.30386752721E+01
 0.38399282140E+01 0.46637970075E+01 0.54139798812E+01 0.59526462262E+01 0.39070513739E+01
 0.38045390253E+01 0.35172555812E+01 0.30960257519E+01 0.26012673850E+01 0.20874035390E+01
 0.15991945271E+01 0.11728398702E+01 0.83332071665E+00 0.58897910450E+00 0.43055614810E+00
 0.33768772176E+00 0.28836731267E+00 0.26548719002E+00 0.25894968982E+00 0.26548719002E+00
 0.28836731267E+00 0.33768772176E+00 0.43055614810E+00 0.58897910450E+00 0.83332071665E+00
 0.11728398702E+01 0.15991945271E+01 0.20874035390E+01 0.26012673850E+01 0.30960257519E+01
 0.35172555812E+01 0.38045390253E+01 0.25370458992E+01 0.24751853261E+01 0.22989847033E+01
 0.20338425933E+01 0.17147831788E+01 0.13797845471E+01 0.10642152498E+01 0.79562644990E+00
 0.58897910450E+00 0.44468335170E+00 0.35168672923E+00 0.29451947364E+00 0.26018482690E+00
 0.24129837785E+00 0.23516675493E+00 0.24129837785E+00 0.26018482690E+00 0.29451947364E+00
 0.35168672923E+00 0.44468335170E+00 0.58897910450E+00 0.79562644990E+00 0.10642152498E+01
 0.13797845471E+01 0.17147831788E+01 0.20338425933E+01 0.22989847033E+01 0.24751853261E+01
 0.16158693976E+01 0.15760221482E+01 0.14626139130E+01 0.12928415035E+01 0.10914414442E+01
 0.88537973382E+00 0.69805236511E+00 0.54472388995E+00 0.43055614810E+00 0.35168672923E+00
 0.29889636306E+00 0.26252637455E+00 0.23655002315E+00 0.21978424930E+00 0.21383934613E+00
 0.21978424930E+00 0.23655002315E+00 0.26252637455E+00 0.29889636306E+00 0.35168672923E+00
 0.43055614810E+00 0.54472388995E+00 0.69805236511E+00 0.88537973382E+00 0.10914414442E+01
 0.12928415035E+01 0.14626139130E+01 0.15760221482E+01 0.96936594332E+00 0.94761381322E+00
 0.88586825250E+00 0.79392502992E+00 0.68572151077E+00 0.57614689347E+00 0.47763725478E+00
 0.39762997165E+00 0.33768772176E+00 0.29451947364E+00 0.26252637455E+00 0.23692765035E+00
 0.21605404107E+00 0.20152965829E+00 0.19622872685E+00 0.20152965829E+00 0.21605404107E+00
 0.23692765035E+00 0.26252637455E+00 0.29451947364E+00 0.33768772176E+00 0.39762997165E+00
 0.47763725478E+00 0.57614689347E+00 0.68572151077E+00 0.79392502992E+00 0.88586825250E+00
 0.94761381322E+00 0.59222430217E+00 0.58282252510E+00 0.55597463966E+00 0.51540715124E+00
 0.46638355853E+00 0.41472290361E+00 0.36575559876E+00 0.32320784298E+00 0.28836731267E+00
 0.26018482690E+00 0.23655002315E+00 0.21605404107E+00 0.19906759884E+00 0.18746195134E+00
 0.18330071909E+00 0.18746195134E+00 0.19906759884E+00 0.21605404107E+00 0.23655002315E+00
 0.26018482690E+00 0.28836731267E+00 0.32320784298E+00 0.36575559876E+00 0.41472290361E+00
 0.46638355853E+00 0.51540715124E+00 0.55597463966E+00 0.58282252510E+00 0.45850914726E+00
 0.45265084960E+00 0.43612730901E+00 0.41163011284E+00 0.38244837008E+00 0.35152347563E+00
 0.32098810216E+00 0.29211639669E+00 0.26548719002E+00 0.24129837785E+00 0.21978424930E+00
 0.20152965829E+00 0.18746195134E+00 0.17855529925E+00 0.17550484919E+00 0.17855529925E+00
 0.18746195134E+00 0.20152965829E+00 0.21978424930E+00 0.24129837785E+00 0.26548719002E+00
 0.29211639669E+00 0.32098810216E+00 0.35152347563E+00 0.38244837008E+00 0.41163011284E+00
 0.43612730901E+00 0.45265084960E+00 0.44109715530E+00 0.43496109092E+00 0.41794383686E+00
 0.39354063897E+00 0.36575385948E+00 0.33756456129E+00 0.31031293418E+00 0.28413906992E+00
 0.25894968982E+00 0.23516675493E+00 0.21383934613E+00 0.19622872685E+00 0.18330071909E+00
 0.17550484919E+00 0.17291345773E+00 0.17550484919E+00 0.18330071909E+00 0.19622872685E+00
 0.21383934613E+00 0.23516675493E+00 0.25894968982E+00 0.28413906992E+00 0.31031293418E+00
 0.33756456129E+00 0.36575385948E+00 0.39354063897E+00 0.41794383686E+00 0.43496109092E+00
 0.45850914726E+00 0.45265084960E+00 0.43612730901E+00 0.41163011284E+00 0.38244837008E+00
 0.35152347563E+00 0.32098810216E+00 0.29211639669E+00 0.26548719002E+00 0.24129837785E+00
 0.21978424930E+00 0.20152965829E+00 0.18746195134E+00 0.17855529925E+00 0.17550484919E+00
 0.17855529925E+00 0.18746195134E+00 0.20152965829E+00 0.21978424930E+00 0.24129837785E+00
 0.26548719002E+00 0.29211639669E+00 0.32098810216E+00 0.35152347563E+00 0.38244837008E+00
 0.41163011284E+00 0.43612730901E+00 0.45265084960E+00 0.59222430217E+00 0.58282252510E+00
 0.55597463966E+00 0.51540715124E+00 0.46638355853E+00 0.41472290361E+00 0.36575559876E+00
 0.32320784298E+00 0.28836731267E+00 0.26018482690E+00 0.23655002315E+00 0.21605404107E+00
 0.19906759884E+00 0.18746195134E+00 0.18330071909E+00 0.18746195134E+00 0.19906759884E+00
 0.21605404107E+00 0.23655002315E+00 0.26018482690E+00 0.28836731267E+00 0.32320784298E+00
 0.36575559876E+00 0.41472290361E+00 0.46638355853E+00 0.51540715124E+00 0.55597463966E+00
 0.58282252510E+00 0.96936594332E+00 0.94761381322E+00 0.88586825250E+00 0.79392502992E+00
 0.68572151077E+00 0.57614689347E+00 0.47763725478E+00 0.39762997165E+00 0.33768772176E+00
 0.29451947364E+00 0.26252637455E+00 0.23692765035E+00 0.21605404107E+00 0.20152965829E+00
 0.19622872685E+00 0.20152965829E+00 0.21605404107E+00 0.23692765035E+00 0.26252637455E+00
 0.29451947364E+00 0.33768772176E+00 0.39762997165E+00 0.47763725478E+00 0.57614689347E+00
 0.68572151077E+00 0.79392502992E+00 0.88586825250E+00 0.94761381322E+00 0.16158693976E+01
 0.15760221482E+01 0.14626139130E+01 0.12928415035E+01 0.10914414442E+01 0.88537973382E+00
 0.69805236511E+00 0.54472388995E+00 0.43055614810E+00 0.35168672923E+00 0.29889636306E+00
 0.26252637455E+00 0.23655002315E+00 0.21978424930E+00 0.21383934613E+00 0.21978424930E+00
 0.23655002315E+00 0.26252637455E+00 0.29889636306E+00 0.35168672923E+00 0.43055614810E+00
 0.54472388995E+00 0.69805236511E+00 0.88537973382E+00 0.10914414442E+01 0.12928415035E+01
 0.14626139130E+01 0.15760221482E+01 0.25370458992E+01 0.24751853261E+01 0.22989847033E+01
 0.20338425933E+01 0.17147831788E+01 0.13797845471E+01 0.10642152498E+01 0.79562644990E+00
 0.58897910450E+00 0.44468335170E+00 0.35168672923E+00 0.29451947364E+00 0.26018482690E+00
 0.24129837785E+00 0.23516675493E+00 0.24129837785E+00 0.26018482690E+00 0.29451947364E+00
 0.35168672923E+00 0.44468335170E+00 0.58897910450E+00 0.79562644990E+00 0.10642152498E+01
 0.13797845471E+01 0.17147831788E+01 0.20338425933E+01 0.22989847033E+01 0.24751853261E+01
 0.39070513739E+01 0.38045390253E+01 0.35172555812E+01 0.30960257519E+01 0.26012673850E+01
 0.20874035390E+01 0.15991945271E+01 0.11728398702E+01 0.83332071665E+00 0.58897910450E+00
 0.43055614810E+00 0.33768772176E+00 0.28836731267E+00 0.26548719002E+00 0.25894968982E+00
 0.26548719002E+00 0.28836731267E+00 0.33768772176E+00 0.43055614810E+00 0.58897910450E+00
 0.83332071665E+00 0.11728398702E+01 0.15991945271E+01 0.20874035390E+01 0.26012673850E+01
 0.30960257519E+01 0.35172555812E+01 0.38045390253E+01 0.61501369938E+01 0.59526462262E+01
 0.54139798812E+01 0.46637970075E+01 0.38399282140E+01 0.30386752721E+01 0.23102711180E+01
 0.16815975241E+01 0.11728398702E+01 0.79562644990E+00 0.54472388995E+00 0.39762997165E+00
 0.32320784298E+00 0.29211639669E+00 0.28413906992E+00 0.29211639669E+00 0.32320784298E+00
 0.39762997165E+00 0.54472388995E+00 0.79562644990E+00 0.11728398702E+01 0.16815975241E+01
 0.23102711180E+01 0.30386752721E+01 0.38399282140E+01 0.46637970075E+01 0.54139798812E+01
 0.59526462262E+01 0.10028493601E+02 0.96183377864E+01 0.85257765029E+01 0.70773505263E+01
 0.56018689395E+01 0.42933316944E+01 0.32020805309E+01 0.23102711180E+01 0.15991945271E+01
 0.10642152498E+01 0.69805236511E+00 0.47763725478E+00 0.36575559876E+00 0.32098810216E+00
 0.31031293418E+00 0.32098810216E+00 0.36575559876E+00 0.47763725478E+00 0.69805236511E+00
 0.10642152498E+01 0.15991945271E+01 0.23102711180E+01 0.32020805309E+01 0.42933316944E+01
 0.56018689395E+01 0.70773505263E+01 0.85257765029E+01 0.96183377864E+01 0.16827906699E+02
 0.15977832260E+02 0.13751922634E+02 0.10908244674E+02 0.81833365507E+01 0.59666255630E+01
 0.42933316944E+01 0.30386752721E+01 0.20874035390E+01 0.13797845471E+01 0.88537973382E+00
 0.57614689347E+00 0.41472290361E+00 0.35152347563E+00 0.33756456129E+00 0.35152347563E+00
 0.41472290361E+00 0.57614689347E+00 0.88537973382E+00 0.13797845471E+01 0.20874035390E+01
 0.30386752721E+01 0.42933316944E+01 0.59666255630E+01 0.81833365507E+01 0.10908244674E+02
 0.13751922634E+02 0.15977832260E+02 0.28095616069E+02 0.26440439784E+02 0.22155685316E+02
 0.16817087650E+02 0.11916413651E+02 0.81833365507E+01 0.56018689395E+01 0.38399282140E+01
 0.26012673850E+01 0.17147831788E+01 0.10914414442E+01 0.68572151077E+00 0.46638355853E+00
 0.38244837008E+00 0.36575385948E+00 0.38244837008E+00 0.46638355853E+00 0.68572151077E+00
 0.10914414442E+01 0.17147831788E+01 0.26012673850E+01 0.38399282140E+01 0.56018689395E+01
 0.81833365507E+01 0.11916413651E+02 0.16817087650E+02 0.22155685316E+02 0.26440439784E+02
 0.44275292795E+02 0.41397325120E+02 0.33999204601E+02 0.24923569363E+02 0.16817087650E+02
 0.10908244674E+02 0.70773505263E+01 0.46637970075E+01 0.30960257519E+01 0.20338425933E+01
 0.12928415035E+01 0.79392502992E+00 0.51540715124E+00 0.41163011284E+00 0.39354063897E+00
 0.41163011284E+00 0.51540715124E+00 0.79392502992E+00 0.12928415035E+01 0.20338425933E+01
 0.30960257519E+01 0.46637970075E+01 0.70773505263E+01 0.10908244674E+02 0.16817087650E+02
 0.24923569363E+02 0.33999204601E+02 0.41397325120E+02 0.63081947795E+02 0.58649615849E+02
 0.47474456659E+02 0.33999204601E+02 0.22155685316E+02 0.13751922634E+02 0.85257765029E+01
 0.54139798812E+01 0.35172555812E+01 0.22989847033E+01 0.14626139130E+01 0.88586825250E+00
 0.55597463966E+00 0.43612730901E+00 0.41794383686E+00 0.43612730901E+00 0.55597463966E+00
 0.88586825250E+00 0.14626139130E+01 0.22989847033E+01 0.35172555812E+01 0.54139798812E+01
 0.85257765029E+01 0.13751922634E+02 0.22155685316E+02 0.33999204601E+02 0.47474456659E+02
 0.58649615849E+02 0.79271513953E+02 0.73354989250E+02 0.58649615849E+02 0.41397325120E+02
 0.26440439784E+02 0.15977832260E+02 0.96183377864E+01 0.59526462262E+01 0.38045390253E+01
 0.24751853261E+01 0.15760221482E+01 0.94761381322E+00 0.58282252510E+00 0.45265084960E+00
 0.43496109092E+00 0.45265084960E+00 0.58282252510E+00 0.94761381322E+00 0.15760221482E+01
 0.24751853261E+01 0.38045390253E+01 0.59526462262E+01 0.96183377864E+01 0.15977832260E+02
 0.26440439784E+02 0.41397325120E+02 0.58649615849E+02 0.73354989250E+02 0.87025066021E+02
 0.80054080769E+02 0.62923201514E+02 0.43533911453E+02 0.27575743181E+02 0.16534257097E+02
 0.98537557732E+01 0.60359933474E+01 0.38273901210E+01 0.24810145640E+01 0.15798993805E+01
 0.95077916717E+00 0.58466507666E+00 0.45446398147E+00 0.43720995221E+00 0.45446398147E+00
 0.58466507666E+00 0.95077916717E+00 0.15798993805E+01 0.24810145640E+01 0.38273901210E+01
 0.60359933474E+01 0.98537557732E+01 0.16534257097E+02 0.27575743181E+02 0.43533911453E+02
 0.62923201514E+02 0.80054080769E+02 0.80054080769E+02 0.73766807098E+02 0.58283850095E+02
 0.40652918676E+02 0.25955454038E+02 0.15700080835E+02 0.94503968573E+01 0.58415733558E+01
 0.37266418890E+01 0.24205625523E+01 0.15412085609E+01 0.92973835946E+00 0.57558416961E+00
 0.44881848264E+00 0.43130601838E+00 0.44881848264E+00 0.57558416961E+00 0.92973835946E+00
 0.15412085609E+01 0.24205625523E+01 0.37266418890E+01 0.58415733558E+01 0.94503968573E+01
 0.15700080835E+02 0.25955454038E+02 0.40652918676E+02 0.58283850095E+02 0.73766807098E+02
 0.62923201514E+02 0.58283850095E+02 0.46765279505E+02 0.33352230344E+02 0.21758902789E+02
 0.13514844524E+02 0.83756203901E+01 0.53112595662E+01 0.34443772269E+01 0.22484123237E+01
 0.14310687573E+01 0.86995907156E+00 0.54958936281E+00 0.43282864366E+00 0.41486595632E+00
 0.43282864366E+00 0.54958936281E+00 0.86995907156E+00 0.14310687573E+01 0.22484123237E+01
 0.34443772269E+01 0.53112595662E+01 0.83756203901E+01 0.13514844524E+02 0.21758902789E+02
 0.33352230344E+02 0.46765279505E+02 0.58283850095E+02 0.43533911453E+02 0.40652918676E+02
 0.33352230344E+02 0.24470176761E+02 0.16524785286E+02 0.10720690718E+02 0.69500237002E+01
 0.45727646052E+01 0.30307862977E+01 0.19894963667E+01 0.12661385323E+01 0.78081717508E+00
 0.51016838833E+00 0.40897572424E+00 0.39114166217E+00 0.40897572424E+00 0.51016838833E+00
 0.78081717508E+00 0.12661385323E+01 0.19894963667E+01 0.30307862977E+01 0.45727646052E+01
 0.69500237002E+01 0.10720690718E+02 0.16524785286E+02 0.24470176761E+02 0.33352230344E+02
 0.40652918676E+02 0.27575743181E+02 0.25955454038E+02 0.21758902789E+02 0.16524785286E+02
 0.11712507595E+02 0.80399937309E+01 0.54970567411E+01 0.37621588432E+01 0.25456177709E+01
 0.16781935266E+01 0.10704390427E+01 0.67577023979E+00 0.46239901748E+00 0.38043628409E+00
 0.36399480266E+00 0.38043628409E+00 0.46239901748E+00 0.67577023979E+00 0.10704390427E+01
 0.16781935266E+01 0.25456177709E+01 0.37621588432E+01 0.54970567411E+01 0.80399937309E+01
 0.11712507595E+02 0.16524785286E+02 0.21758902789E+02 0.25955454038E+02 0.16534257097E+02
 0.15700080835E+02 0.13514844524E+02 0.10720690718E+02 0.80399937309E+01 0.58567753650E+01
 0.42085521187E+01 0.29748854546E+01 0.20426710031E+01 0.13517219005E+01 0.87022882037E+00
 0.56934835921E+00 0.41208183692E+00 0.35024760708E+00 0.33649931323E+00 0.35024760708E+00
 0.41208183692E+00 0.56934835921E+00 0.87022882037E+00 0.13517219005E+01 0.20426710031E+01
 0.29748854546E+01 0.42085521187E+01 0.58567753650E+01 0.80399937309E+01 0.10720690718E+02
 0.13514844524E+02 0.15700080835E+02 0.98537557732E+01 0.94503968573E+01 0.83756203901E+01
 0.69500237002E+01 0.54970567411E+01 0.42085521187E+01 0.31354290612E+01 0.22608678801E+01
 0.15659318056E+01 0.10446172688E+01 0.68835633987E+00 0.47383582250E+00 0.36468455683E+00
 0.32080833252E+00 0.31029039796E+00 0.32080833252E+00 0.36468455683E+00 0.47383582250E+00
 0.68835633987E+00 0.10446172688E+01 0.15659318056E+01 0.22608678801E+01 0.31354290612E+01
 0.42085521187E+01 0.54970567411E+01 0.69500237002E+01 0.83756203901E+01 0.94503968573E+01
 0.60359933474E+01 0.58415733558E+01 0.53112595662E+01 0.45727646052E+01 0.37621588432E+01
 0.29748854546E+01 0.22608678801E+01 0.16464152578E+01 0.11505579806E+01 0.78365225587E+00
 0.53979591609E+00 0.39672496199E+00 0.32416766726E+00 0.29374643831E+00 0.28591560472E+00
 0.29374643831E+00 0.32416766726E+00 0.39672496199E+00 0.53979591609E+00 0.78365225587E+00
 0.11505579806E+01 0.16464152578E+01 0.22608678801E+01 0.29748854546E+01 0.37621588432E+01
 0.45727646052E+01 0.53112595662E+01 0.58415733558E+01 0.38273901210E+01 0.37266418890E+01
 0.34443772269E+01 0.30307862977E+01 0.25456177709E+01 0.20426710031E+01 0.15659318056E+01
 0.11505579806E+01 0.82045510715E+00 0.58327994234E+00 0.42970872372E+00 0.33979781454E+00
 0.29211826803E+00 0.27003748586E+00 0.26373690076E+00 0.27003748586E+00 0.29211826803E+00
 0.33979781454E+00 0.42970872372E+00 0.58327994234E+00 0.82045510715E+00 0.11505579806E+01
 0.15659318056E+01 0.20426710031E+01 0.25456177709E+01 0.30307862977E+01 0.34443772269E+01
 0.37266418890E+01 0.24810145640E+01 0.24205625523E+01 0.22484123237E+01 0.19894963667E+01
 0.16781935266E+01 0.13517219005E+01 0.10446172688E+01 0.78365225587E+00 0.58327994234E+00
 0.44381860352E+00 0.35446142240E+00 0.30006315054E+00 0.26779618536E+00 0.25023904310E+00
 0.24457184257E+00 0.25023904310E+00 0.26779618536E+00 0.30006315054E+00 0.35446142240E+00
 0.44381860352E+00 0.58327994234E+00 0.78365225587E+00 0.10446172688E+01 0.13517219005E+01
 0.16781935266E+01 0.19894963667E+01 0.22484123237E+01 0.24205625523E+01 0.15798993805E+01
 0.15412085609E+01 0.14310687573E+01 0.12661385323E+01 0.10704390427E+01 0.87022882037E+00
 0.68835633987E+00 0.53979591609E+00 0.42970872372E+00 0.35446142240E+00 0.30512049454E+00
 0.27213149049E+00 0.24922511307E+00 0.23468039680E+00 0.22955395596E+00 0.23468039680E+00
 0.24922511307E+00 0.27213149049E+00 0.30512049454E+00 0.35446142240E+00 0.42970872372E+00
 0.53979591609E+00 0.68835633987E+00 0.87022882037E+00 0.10704390427E+01 0.12661385323E+01
 0.14310687573E+01 0.15412085609E+01 0.95077916717E+00 0.92973835946E+00 0.86995907156E+00
 0.78081717508E+00 0.67577023979E+00 0.56934835921E+00 0.47383582250E+00 0.39672496199E+00
 0.33979781454E+00 0.30006315054E+00 0.27213149049E+00 0.25109724811E+00 0.23466780283E+00
 0.22346162712E+00 0.21939811240E+00 0.22346162712E+00 0.23466780283E+00 0.25109724811E+00
 0.27213149049E+00 0.30006315054E+00 0.33979781454E+00 0.39672496199E+00 0.47383582250E+00
 0.56934835921E+00 0.67577023979E+00 0.78081717508E+00 0.86995907156E+00 0.92973835946E+00
 0.58466507666E+00 0.57558416961E+00 0.54958936281E+00 0.51016838833E+00 0.46239901748E+00
 0.41208183692E+00 0.36468455683E+00 0.32416766726E+00 0.29211826803E+00 0.26779618536E+00
 0.24922511307E+00 0.23466780283E+00 0.22353574181E+00 0.21630508099E+00 0.21377306591E+00
 0.21630508099E+00 0.22353574181E+00 0.23466780283E+00 0.24922511307E+00 0.26779618536E+00
 0.29211826803E+00 0.32416766726E+00 0.36468455683E+00 0.41208183692E+00 0.46239901748E+00
 0.51016838833E+00 0.54958936281E+00 0.57558416961E+00 0.45446398147E+00 0.44881848264E+00
 0.43282864366E+00 0.40897572424E+00 0.38043628409E+00 0.35024760708E+00 0.32080833252E+00
 0.29374643831E+00 0.27003748586E+00 0.25023904310E+00 0.23468039680E+00 0.22346162712E+00
 0.21630508099E+00 0.21253276086E+00 0.21138693740E+00 0.21253276086E+00 0.21630508099E+00
 0.22346162712E+00 0.23468039680E+00 0.25023904310E+00 0.27003748586E+00 0.29374643831E+00
 0.32080833252E+00 0.35024760708E+00 0.38043628409E+00 0.40897572424E+00 0.43282864366E+00
 0.44881848264E+00 0.43720995221E+00 0.43130601838E+00 0.41486595632E+00 0.39114166217E+00
 0.36399480266E+00 0.33649931323E+00 0.31029039796E+00 0.28591560472E+00 0.26373690076E+00
 0.24457184257E+00 0.22955395596E+00 0.21939811240E+00 0.21377306591E+00 0.21138693740E+00
 0.21079887037E+00 0.21138693740E+00 0.21377306591E+00 0.21939811240E+00 0.22955395596E+00
 0.24457184257E+00 0.26373690076E+00 0.28591560472E+00 0.31029039796E+00 0.33649931323E+00
 0.36399480266E+00 0.39114166217E+00 0.41486595632E+00 0.43130601838E+00 0.45446398147E+00
 0.44881848264E+00 0.43282864366E+00 0.40897572424E+00 0.38043628409E+00 0.35024760708E+00
 0.32080833252E+00 0.29374643831E+00 0.27003748586E+00 0.25023904310E+00 0.23468039680E+00
 0.22346162712E+00 0.21630508099E+00 0.21253276086E+00 0.21138693740E+00 0.21253276086E+00
 0.21630508099E+00 0.22346162712E+00 0.23468039680E+00 0.25023904310E+00 0.27003748586E+00
 0.29374643831E+00 0.32080833252E+00 0.35024760708E+00 0.38043628409E+00 0.40897572424E+00
 0.43282864366E+00 0.44881848264E+00 0.58466507666E+00 0.57558416961E+00 0.54958936281E+00
 0.51016838833E+00 0.46239901748E+00 0.41208183692E+00 0.36468455683E+00 0.32416766726E+00
 0.29211826803E+00 0.26779618536E+00 0.24922511307E+00 0.23466780283E+00 0.22353574181E+00
 0.21630508099E+00 0.21377306591E+00 0.21630508099E+00 0.22353574181E+00 0.23466780283E+00
 0.24922511307E+00 0.26779618536E+00 0.29211826803E+00 0.32416766726E+00 0.36468455683E+00
 0.41208183692E+00 0.46239901748E+00 0.51016838833E+00 0.54958936281E+00 0.57558416961E+00
 0.95077916717E+00 0.92973835946E+00 0.86995907156E+00 0.78081717508E+00 0.67577023979E+00
 0.56934835921E+00 0.47383582250E+00 0.39672496199E+00 0.33979781454E+00 0.30006315054E+00
 0.27213149049E+00 0.25109724811E+00 0.23466780283E+00 0.22346162712E+00 0.21939811240E+00
 0.22346162712E+00 0.23466780283E+00 0.25109724811E+00 0.27213149049E+00 0.30006315054E+00
 0.33979781454E+00 0.39672496199E+00 0.47383582250E+00 0.56934835921E+00 0.67577023979E+00
 0.78081717508E+00 0.86995907156E+00 0.92973835946E+00 0.15798993805E+01 0.15412085609E+01
 0.14310687573E+01 0.12661385323E+01 0.10704390427E+01 0.87022882037E+00 0.68835633987E+00
 0.53979591609E+00 0.42970872372E+00 0.35446142240E+00 0.30512049454E+00 0.27213149049E+00
 0.24922511307E+00 0.23468039680E+00 0.22955395596E+00 0.23468039680E+00 0.24922511307E+00
 0.27213149049E+00 0.30512049454E+00 0.35446142240E+00 0.42970872372E+00 0.53979591609E+00
 0.68835633987E+00 0.87022882037E+00 0.10704390427E+01 0.12661385323E+01 0.14310687573E+01
 0.15412085609E+01 0.24810145640E+01 0.24205625523E+01 0.22484123237E+01 0.19894963667E+01
 0.16781935266E+01 0.13517219005E+01 0.10446172688E+01 0.78365225587E+00 0.58327994234E+00
 0.44381860352E+00 0.35446142240E+00 0.30006315054E+00 0.26779618536E+00 0.25023904310E+00
 0.24457184257E+00 0.25023904310E+00 0.26779618536E+00 0.30006315054E+00 0.35446142240E+00
 0.44381860352E+00 0.58327994234E+00 0.78365225587E+00 0.10446172688E+01 0.13517219005E+01
 0.16781935266E+01 0.19894963667E+01 0.22484123237E+01 0.24205625523E+01 0.38273901210E+01
 0.37266418890E+01 0.34443772269E+01 0.30307862977E+01 0.25456177709E+01 0.20426710031E+01
 0.15659318056E+01 0.11505579806E+01 0.82045510715E+00 0.58327994234E+00 0.42970872372E+00
 0.33979781454E+00 0.29211826803E+00 0.27003748586E+00 0.26373690076E+00 0.27003748586E+00
 0.29211826803E+00 0.33979781454E+00 0.42970872372E+00 0.58327994234E+00 0.82045510715E+00
 0.11505579806E+01 0.15659318056E+01 0.20426710031E+01 0.25456177709E+01 0.30307862977E+01
 0.34443772269E+01 0.37266418890E+01 0.60359933474E+01 0.58415733558E+01 0.53112595662E+01
 0.45727646052E+01 0.37621588432E+01 0.29748854546E+01 0.22608678801E+01 0.16464152578E+01
 0.11505579806E+01 0.78365225587E+00 0.53979591609E+00 0.39672496199E+00 0.32416766726E+00
 0.29374643831E+00 0.28591560472E+00 0.29374643831E+00 0.32416766726E+00 0.39672496199E+00
 0.53979591609E+00 0.78365225587E+00 0.11505579806E+01 0.16464152578E+01 0.22608678801E+01
 0.29748854546E+01 0.37621588432E+01 0.45727646052E+01 0.53112595662E+01 0.58415733558E+01
 0.98537557732E+01 0.94503968573E+01 0.83756203901E+01 0.69500237002E+01 0.54970567411E+01
 0.42085521187E+01 0.31354290612E+01 0.22608678801E+01 0.15659318056E+01 0.10446172688E+01
 0.68835633987E+00 0.47383582250E+00 0.36468455683E+00 0.32080833252E+00 0.31029039796E+00
 0.32080833252E+00 0.36468455683E+00 0.47383582250E+00 0.68835633987E+00 0.10446172688E+01
 0.15659318056E+01 0.22608678801E+01 0.31354290612E+01 0.42085521187E+01 0.54970567411E+01
 0.69500237002E+01 0.83756203901E+01 0.94503968573E+01 0.16534257097E+02 0.15700080835E+02
 0.13514844524E+02 0.10720690718E+02 0.80399937309E+01 0.58567753650E+01 0.42085521187E+01
 0.29748854546E+01 0.20426710031E+01 0.13517219005E+01 0.87022882037E+00 0.56934835921E+00
 0.41208183692E+00 0.35024760708E+00 0.33649931323E+00 0.35024760708E+00 0.41208183692E+00
 0.56934835921E+00 0.87022882037E+00 0.13517219005E+01 0.20426710031E+01 0.29748854546E+01
 0.42085521187E+01 0.58567753650E+01 0.80399937309E+01 0.10720690718E+02 0.13514844524E+02
 0.15700080835E+02 0.27575743181E+02 0.25955454038E+02 0.21758902789E+02 0.16524785286E+02
 0.11712507595E+02 0.80399937309E+01 0.54970567411E+01 0.37621588432E+01 0.25456177709E+01
 0.16781935266E+01 0.10704390427E+01 0.67577023979E+00 0.46239901748E+00 0.38043628409E+00
 0.36399480266E+00 0.38043628409E+00 0.46239901748E+00 0.67577023979E+00 0.10704390427E+01
 0.16781935266E+01 0.25456177709E+01 0.37621588432E+01 0.54970567411E+01 0.80399937309E+01
 0.11712507595E+02 0.16524785286E+02 0.21758902789E+02 0.25955454038E+02 0.43533911453E+02
 0.40652918676E+02 0.33352230344E+02 0.24470176761E+02 0.16524785286E+02 0.10720690718E+02
 0.69500237002E+01 0.45727646052E+01 0.30307862977E+01 0.19894963667E+01 0.12661385323E+01
 0.78081717508E+00 0.51016838833E+00 0.40897572424E+00 0.39114166217E+00 0.40897572424E+00
 0.51016838833E+00 0.78081717508E+00 0.12661385323E+01 0.19894963667E+01 0.30307862977E+01
 0.45727646052E+01 0.69500237002E+01 0.10720690718E+02 0.16524785286E+02 0.24470176761E+02
 0.33352230344E+02 0.40652918676E+02 0.62923201514E+02 0.58283850095E+02 0.46765279505E+02
 0.33352230344E+02 0.21758902789E+02 0.13514844524E+02 0.83756203901E+01 0.53112595662E+01
 0.34443772269E+01 0.22484123237E+01 0.14310687573E+01 0.86995907156E+00 0.54958936281E+00
 0.43282864366E+00 0.41486595632E+00 0.43282864366E+00 0.54958936281E+00 0.86995907156E+00
 0.14310687573E+01 0.22484123237E+01 0.34443772269E+01 0.53112595662E+01 0.83756203901E+01
 0.13514844524E+02 0.21758902789E+02 0.33352230344E+02 0.46765279505E+02 0.58283850095E+02
 0.80054080769E+02 0.73766807098E+02 0.58283850095E+02 0.40652918676E+02 0.25955454038E+02
 0.15700080835E+02 0.94503968573E+01 0.58415733558E+01 0.37266418890E+01 0.24205625523E+01
 0.15412085609E+01 0.92973835946E+00 0.57558416961E+00 0.44881848264E+00 0.43130601838E+00
 0.44881848264E+00 0.57558416961E+00 0.92973835946E+00 0.15412085609E+01 0.24205625523E+01
 0.37266418890E+01 0.58415733558E+01 0.94503968573E+01 0.15700080835E+02 0.25955454038E+02
 0.40652918676E+02 0.58283850095E+02 0.73766807098E+02 0.86886461788E+02 0.79330319650E+02
 0.61077794571E+02 0.41220619065E+02 0.25858804026E+02 0.15563822166E+02 0.92891713479E+01
 0.56815270106E+01 0.35900384480E+01 0.23193159244E+01 0.14779761608E+01 0.89836738360E+00
 0.56303709334E+00 0.44248393549E+00 0.42560255382E+00 0.44248393549E+00 0.56303709334E+00
 0.89836738360E+00 0.14779761608E+01 0.23193159244E+01 0.35900384480E+01 0.56815270106E+01
 0.92891713479E+01 0.15563822166E+02 0.25858804026E+02 0.41220619065E+02 0.61077794571E+02
 0.79330319650E+02 0.79330319650E+02 0.72571520129E+02 0.56230603691E+02 0.38369890586E+02
 0.24350009183E+02 0.14783122034E+02 0.89091728142E+01 0.54976326060E+01 0.34950139781E+01
 0.22630639097E+01 0.14425543922E+01 0.87927953602E+00 0.55481086240E+00 0.43739813470E+00
 0.42031549692E+00 0.43739813470E+00 0.55481086240E+00 0.87927953602E+00 0.14425543922E+01
 0.22630639097E+01 0.34950139781E+01 0.54976326060E+01 0.89091728142E+01 0.14783122034E+02
 0.24350009183E+02 0.38369890586E+02 0.56230603691E+02 0.72571520129E+02 0.61077794571E+02