 vasp.5.4.4.18Apr17-6-g9f103f2a35 (build Sep 28 2022 22:23:22) complex           
 executed on             LinuxGNU date 2022.12.13  22:12:37
 running on    1 total cores
 distrk:  each k-point on    1 cores,    1 groups
 distr:  one band on NCORES_PER_BAND=   1 cores,    1 groups


--------------------------------------------------------------------------------------------------------


 INCAR:
 POTCAR:    PAW_PBE H 15Jun2001                   
 POTCAR:    PAW_PBE H 15Jun2001                   
   VRHFIN =H: ultrasoft test                                                    
   LEXCH  = PE                                                                  
   EATOM  =    12.4884 eV,    0.9179 Ry                                         
                                                                                
   TITEL  = PAW_PBE H 15Jun2001                                                 
   LULTRA =        F    use ultrasoft PP ?                                      
   IUNSCR =        0    unscreen: 0-lin 1-nonlin 2-no                           
   RPACOR =    0.000    partial core radius                                     
   POMASS =    1.000; ZVAL   =    1.000    mass and valenz                      
   RCORE  =    1.100    outmost cutoff radius                                   
   RWIGS  =    0.700; RWIGS  =    0.370    wigner-seitz radius (au A)           
   ENMAX  =  250.000; ENMIN  =  200.000 eV                                      
   RCLOC  =    0.701    cutoff for local pot                                    
   LCOR   =        T    correct aug charges                                     
   LPAW   =        T    paw PP                                                  
   EAUG   =  400.000                                                            
   RMAX   =    1.123    core radius for proj-oper                               
   RAUG   =    1.200    factor for augmentation sphere                          
   RDEP   =    1.112    radius for radial grids                                 
   RDEPT  =    0.926    core radius for aug-charge                              
                                                                                
   Atomic configuration                                                         
    2 entries                                                                   
     n  l   j            E        occ.                                          
     1  0  0.50        -6.4927   1.0000                                         
     2  1  0.50        -3.4015   0.0000                                         
   Description                                                                  
     l       E           TYP  RCUT    TYP  RCUT                                 
     0     -6.4927494     23  1.100                                             
     0      6.8029130     23  1.100                                             
     1     -4.0817478     23  1.100                                             
  local pseudopotential read in
  atomic valenz-charges read in
  non local Contribution for L=           0  read in
    real space projection operators read in
  non local Contribution for L=           0  read in
    real space projection operators read in
  non local Contribution for L=           1  read in
    real space projection operators read in
    PAW grid and wavefunctions read in

   number of l-projection  operators is LMAX  =           3
   number of lm-projection operators is LMMAX =           5

  PAW_PBE H 15Jun2001                   :
 energy of atom  1       EATOM=  -12.4884
 kinetic energy error for atom=    0.0868 (will be added to EATOM!!)


 POSCAR: H4                                      
  positions in direct lattice
  No initial velocities read in
 exchange correlation table for  LEXCH =        8
   RHO(1)=    0.500       N(1)  =     2000
   RHO(2)=  100.500       N(2)  =     4000



--------------------------------------------------------------------------------------------------------


 ion  position               nearest neighbor table
   1  0.000  0.000  0.909-   2 0.75
   2  0.000  0.000  0.091-   1 0.75
   3  0.500  0.500  0.409-   4 0.75
   4  0.500  0.500  0.591-   3 0.75

  LATTYP: Found a simple tetragonal cell.
 ALAT       =     3.3809420000
 C/A-ratio  =     1.2187550097
  
  Lattice vectors:
  
 A1 = (   3.3809420000,   0.0000000000,   0.0000000000)
 A2 = (   0.0000000000,   3.3809420000,   0.0000000000)
 A3 = (   0.0000000000,   0.0000000000,   4.1205400000)


Analysis of symmetry for initial positions (statically):
=====================================================================
 Subroutine PRICEL returns following result:
 
  LATTYP: Found a body centered tetragonal cell.
 ALAT       =     3.3809420000
 C/A-ratio  =     1.2187550097
  
  Lattice vectors:
  
 A1 = (  -1.6904710000,  -1.6904710000,   2.0602700000)
 A2 = (   1.6904710000,   1.6904710000,   2.0602700000)
 A3 = (  -1.6904710000,   1.6904710000,  -2.0602700000)
 
   2 primitive cells build up your supercell.
 

 Routine SETGRP: Setting up the symmetry group for a 
 simple tetragonal supercell.


 Subroutine GETGRP returns: Found 16 space group operations
 (whereof 16 operations were pure point group operations)
 out of a pool of 16 trial point group operations.


The static configuration has the point symmetry D_4h.


Analysis of symmetry for dynamics (positions and initial velocities):
=====================================================================
 Subroutine PRICEL returns following result:
 
  LATTYP: Found a body centered tetragonal cell.
 ALAT       =     3.3809420000
 C/A-ratio  =     1.2187550097
  
  Lattice vectors:
  
 A1 = (  -1.6904710000,  -1.6904710000,   2.0602700000)
 A2 = (   1.6904710000,   1.6904710000,   2.0602700000)
 A3 = (  -1.6904710000,   1.6904710000,  -2.0602700000)
 
   2 primitive cells build up your supercell.
 

 Routine SETGRP: Setting up the symmetry group for a 
 simple tetragonal supercell.


 Subroutine GETGRP returns: Found 16 space group operations
 (whereof 16 operations were pure point group operations)
 out of a pool of 16 trial point group operations.


The dynamic configuration has the point symmetry D_4h.


 Subroutine INISYM returns: Found 16 space group operations
 (whereof 16 operations are pure point group operations),
 and found     2 'primitive' translations



 KPOINTS: nxnxn                                   

Automatic generation of k-mesh.
Space group operators:
 irot       det(A)        alpha          n_x          n_y          n_z        tau_x        tau_y        tau_z
    1     1.000000     0.000001     1.000000     0.000000     0.000000    -0.000000     0.000000     0.000000
    2    -1.000000     0.000001     1.000000     0.000000     0.000000    -0.000000     0.000000     0.000000
    3     1.000000    90.000000     0.000000     0.000000    -1.000000    -0.000000     0.000000     0.000000
    4    -1.000000    90.000000     0.000000     0.000000    -1.000000    -0.000000     0.000000     0.000000
    5     1.000000   179.999999    -0.000000    -0.000000     1.000000    -0.000000     0.000000     0.000000
    6    -1.000000   179.999999    -0.000000    -0.000000     1.000000    -0.000000     0.000000     0.000000
    7     1.000000    90.000000    -0.000000    -0.000000     1.000000    -0.000000     0.000000     0.000000
    8    -1.000000    90.000000    -0.000000    -0.000000     1.000000    -0.000000     0.000000     0.000000
    9     1.000000   180.000000     0.000000     1.000000     0.000000    -0.000000     0.000000     0.000000
   10    -1.000000   180.000000     0.000000     1.000000     0.000000    -0.000000     0.000000     0.000000
   11     1.000000   180.000000     0.707107     0.707107     0.000000    -0.000000     0.000000     0.000000
   12    -1.000000   180.000000     0.707107     0.707107     0.000000    -0.000000     0.000000     0.000000
   13     1.000000   180.000000     1.000000    -0.000000     0.000000    -0.000000     0.000000     0.000000
   14    -1.000000   180.000000     1.000000    -0.000000     0.000000    -0.000000     0.000000     0.000000
   15     1.000000   180.000000     0.707107    -0.707107     0.000000    -0.000000     0.000000     0.000000
   16    -1.000000   180.000000     0.707107    -0.707107     0.000000    -0.000000     0.000000     0.000000
 
 Subroutine IBZKPT returns following result:
 ===========================================
 
 Found    196 irreducible k-points:
 
 Following reciprocal coordinates:
            Coordinates               Weight
  0.000000  0.000000  0.000000      1.000000
  0.083333  0.000000  0.000000      4.000000
  0.166667  0.000000  0.000000      4.000000
  0.250000  0.000000  0.000000      4.000000
  0.333333  0.000000  0.000000      4.000000
  0.416667  0.000000  0.000000      4.000000
  0.500000  0.000000  0.000000      2.000000
  0.083333  0.083333  0.000000      4.000000
  0.166667  0.083333  0.000000      8.000000
  0.250000  0.083333  0.000000      8.000000
  0.333333  0.083333  0.000000      8.000000
  0.416667  0.083333  0.000000      8.000000
  0.500000  0.083333  0.000000      4.000000
  0.166667  0.166667  0.000000      4.000000
  0.250000  0.166667  0.000000      8.000000
  0.333333  0.166667  0.000000      8.000000
  0.416667  0.166667  0.000000      8.000000
  0.500000  0.166667  0.000000      4.000000
  0.250000  0.250000  0.000000      4.000000
  0.333333  0.250000  0.000000      8.000000
  0.416667  0.250000  0.000000      8.000000
  0.500000  0.250000  0.000000      4.000000
  0.333333  0.333333  0.000000      4.000000
  0.416667  0.333333  0.000000      8.000000
  0.500000  0.333333  0.000000      4.000000
  0.416667  0.416667  0.000000      4.000000
  0.500000  0.416667  0.000000      4.000000
  0.500000  0.500000  0.000000      1.000000
  0.000000  0.000000  0.083333      2.000000
  0.083333  0.000000  0.083333      8.000000
  0.166667  0.000000  0.083333      8.000000
  0.250000  0.000000  0.083333      8.000000
  0.333333  0.000000  0.083333      8.000000
  0.416667  0.000000  0.083333      8.000000
  0.500000  0.000000  0.083333      4.000000
  0.083333  0.083333  0.083333      8.000000
  0.166667  0.083333  0.083333     16.000000
  0.250000  0.083333  0.083333     16.000000
  0.333333  0.083333  0.083333     16.000000
  0.416667  0.083333  0.083333     16.000000
  0.500000  0.083333  0.083333      8.000000
  0.166667  0.166667  0.083333      8.000000
  0.250000  0.166667  0.083333     16.000000
  0.333333  0.166667  0.083333     16.000000
  0.416667  0.166667  0.083333     16.000000
  0.500000  0.166667  0.083333      8.000000
  0.250000  0.250000  0.083333      8.000000
  0.333333  0.250000  0.083333     16.000000
  0.416667  0.250000  0.083333     16.000000
  0.500000  0.250000  0.083333      8.000000
  0.333333  0.333333  0.083333      8.000000
  0.416667  0.333333  0.083333     16.000000
  0.500000  0.333333  0.083333      8.000000
  0.416667  0.416667  0.083333      8.000000
  0.500000  0.416667  0.083333      8.000000
  0.500000  0.500000  0.083333      2.000000
  0.000000  0.000000  0.166667      2.000000
  0.083333  0.000000  0.166667      8.000000
  0.166667  0.000000  0.166667      8.000000
  0.250000  0.000000  0.166667      8.000000
  0.333333  0.000000  0.166667      8.000000
  0.416667  0.000000  0.166667      8.000000
  0.500000  0.000000  0.166667      4.000000
  0.083333  0.083333  0.166667      8.000000
  0.166667  0.083333  0.166667     16.000000
  0.250000  0.083333  0.166667     16.000000
  0.333333  0.083333  0.166667     16.000000
  0.416667  0.083333  0.166667     16.000000
  0.500000  0.083333  0.166667      8.000000
  0.166667  0.166667  0.166667      8.000000
  0.250000  0.166667  0.166667     16.000000
  0.333333  0.166667  0.166667     16.000000
  0.416667  0.166667  0.166667     16.000000
  0.500000  0.166667  0.166667      8.000000
  0.250000  0.250000  0.166667      8.000000
  0.333333  0.250000  0.166667     16.000000
  0.416667  0.250000  0.166667     16.000000
  0.500000  0.250000  0.166667      8.000000
  0.333333  0.333333  0.166667      8.000000
  0.416667  0.333333  0.166667     16.000000
  0.500000  0.333333  0.166667      8.000000
  0.416667  0.416667  0.166667      8.000000
  0.500000  0.416667  0.166667      8.000000
  0.500000  0.500000  0.166667      2.000000
  0.000000  0.000000  0.250000      2.000000
  0.083333  0.000000  0.250000      8.000000
  0.166667  0.000000  0.250000      8.000000
  0.250000  0.000000  0.250000      8.000000
  0.333333  0.000000  0.250000      8.000000
  0.416667  0.000000  0.250000      8.000000
  0.500000  0.000000  0.250000      4.000000
  0.083333  0.083333  0.250000      8.000000
  0.166667  0.083333  0.250000     16.000000
  0.250000  0.083333  0.250000     16.000000
  0.333333  0.083333  0.250000     16.000000
  0.416667  0.083333  0.250000     16.000000
  0.500000  0.083333  0.250000      8.000000
  0.166667  0.166667  0.250000      8.000000
  0.250000  0.166667  0.250000     16.000000
  0.333333  0.166667  0.250000     16.000000
  0.416667  0.166667  0.250000     16.000000
  0.500000  0.166667  0.250000      8.000000
  0.250000  0.250000  0.250000      8.000000
  0.333333  0.250000  0.250000     16.000000
  0.416667  0.250000  0.250000     16.000000
  0.500000  0.250000  0.250000      8.000000
  0.333333  0.333333  0.250000      8.000000
  0.416667  0.333333  0.250000     16.000000
  0.500000  0.333333  0.250000      8.000000
  0.416667  0.416667  0.250000      8.000000
  0.500000  0.416667  0.250000      8.000000
  0.500000  0.500000  0.250000      2.000000
  0.000000  0.000000  0.333333      2.000000
  0.083333  0.000000  0.333333      8.000000
  0.166667  0.000000  0.333333      8.000000
  0.250000  0.000000  0.333333      8.000000
  0.333333  0.000000  0.333333      8.000000
  0.416667  0.000000  0.333333      8.000000
  0.500000  0.000000  0.333333      4.000000
  0.083333  0.083333  0.333333      8.000000
  0.166667  0.083333  0.333333     16.000000
  0.250000  0.083333  0.333333     16.000000
  0.333333  0.083333  0.333333     16.000000
  0.416667  0.083333  0.333333     16.000000
  0.500000  0.083333  0.333333      8.000000
  0.166667  0.166667  0.333333      8.000000
  0.250000  0.166667  0.333333     16.000000
  0.333333  0.166667  0.333333     16.000000
  0.416667  0.166667  0.333333     16.000000
  0.500000  0.166667  0.333333      8.000000
  0.250000  0.250000  0.333333      8.000000
  0.333333  0.250000  0.333333     16.000000
  0.416667  0.250000  0.333333     16.000000
  0.500000  0.250000  0.333333      8.000000
  0.333333  0.333333  0.333333      8.000000
  0.416667  0.333333  0.333333     16.000000
  0.500000  0.333333  0.333333      8.000000
  0.416667  0.416667  0.333333      8.000000
  0.500000  0.416667  0.333333      8.000000
  0.500000  0.500000  0.333333      2.000000
  0.000000  0.000000  0.416667      2.000000
  0.083333  0.000000  0.416667      8.000000
  0.166667  0.000000  0.416667      8.000000
  0.250000  0.000000  0.416667      8.000000
  0.333333  0.000000  0.416667      8.000000
  0.416667  0.000000  0.416667      8.000000
  0.500000  0.000000  0.416667      4.000000
  0.083333  0.083333  0.416667      8.000000
  0.166667  0.083333  0.416667     16.000000
  0.250000  0.083333  0.416667     16.000000
  0.333333  0.083333  0.416667     16.000000
  0.416667  0.083333  0.416667     16.000000
  0.500000  0.083333  0.416667      8.000000
  0.166667  0.166667  0.416667      8.000000
  0.250000  0.166667  0.416667     16.000000
  0.333333  0.166667  0.416667     16.000000
  0.416667  0.166667  0.416667     16.000000
  0.500000  0.166667  0.416667      8.000000
  0.250000  0.250000  0.416667      8.000000
  0.333333  0.250000  0.416667     16.000000
  0.416667  0.250000  0.416667     16.000000
  0.500000  0.250000  0.416667      8.000000
  0.333333  0.333333  0.416667      8.000000
  0.416667  0.333333  0.416667     16.000000
  0.500000  0.333333  0.416667      8.000000
  0.416667  0.416667  0.416667      8.000000
  0.500000  0.416667  0.416667      8.000000
  0.500000  0.500000  0.416667      2.000000
  0.000000  0.000000  0.500000      1.000000
  0.083333  0.000000  0.500000      4.000000
  0.166667  0.000000  0.500000      4.000000
  0.250000  0.000000  0.500000      4.000000
  0.333333  0.000000  0.500000      4.000000
  0.416667  0.000000  0.500000      4.000000
  0.500000  0.000000  0.500000      2.000000
  0.083333  0.083333  0.500000      4.000000
  0.166667  0.083333  0.500000      8.000000
  0.250000  0.083333  0.500000      8.000000
  0.333333  0.083333  0.500000      8.000000
  0.416667  0.083333  0.500000      8.000000
  0.500000  0.083333  0.500000      4.000000
  0.166667  0.166667  0.500000      4.000000
  0.250000  0.166667  0.500000      8.000000
  0.333333  0.166667  0.500000      8.000000
  0.416667  0.166667  0.500000      8.000000
  0.500000  0.166667  0.500000      4.000000
  0.250000  0.250000  0.500000      4.000000
  0.333333  0.250000  0.500000      8.000000
  0.416667  0.250000  0.500000      8.000000
  0.500000  0.250000  0.500000      4.000000
  0.333333  0.333333  0.500000      4.000000
  0.416667  0.333333  0.500000      8.000000
  0.500000  0.333333  0.500000      4.000000
  0.416667  0.416667  0.500000      4.000000
  0.500000  0.416667  0.500000      4.000000
  0.500000  0.500000  0.500000      1.000000
 
 Following cartesian coordinates:
            Coordinates               Weight
  0.000000  0.000000  0.000000      1.000000
  0.024648  0.000000  0.000000      4.000000
  0.049296  0.000000  0.000000      4.000000
  0.073944  0.000000  0.000000      4.000000
  0.098592  0.000000  0.000000      4.000000
  0.123240  0.000000  0.000000      4.000000
  0.147888  0.000000  0.000000      2.000000
  0.024648  0.024648  0.000000      4.000000
  0.049296  0.024648  0.000000      8.000000
  0.073944  0.024648  0.000000      8.000000
  0.098592  0.024648  0.000000      8.000000
  0.123240  0.024648  0.000000      8.000000
  0.147888  0.024648  0.000000      4.000000
  0.049296  0.049296  0.000000      4.000000
  0.073944  0.049296  0.000000      8.000000
  0.098592  0.049296  0.000000      8.000000
  0.123240  0.049296  0.000000      8.000000
  0.147888  0.049296  0.000000      4.000000
  0.073944  0.073944  0.000000      4.000000
  0.098592  0.073944  0.000000      8.000000
  0.123240  0.073944  0.000000      8.000000
  0.147888  0.073944  0.000000      4.000000
  0.098592  0.098592  0.000000      4.000000
  0.123240  0.098592  0.000000      8.000000
  0.147888  0.098592  0.000000      4.000000
  0.123240  0.123240  0.000000      4.000000
  0.147888  0.123240  0.000000      4.000000
  0.147888  0.147888  0.000000      1.000000
  0.000000  0.000000  0.020224      2.000000
  0.024648  0.000000  0.020224      8.000000
  0.049296  0.000000  0.020224      8.000000
  0.073944  0.000000  0.020224      8.000000
  0.098592  0.000000  0.020224      8.000000
  0.123240  0.000000  0.020224      8.000000
  0.147888  0.000000  0.020224      4.000000
  0.024648  0.024648  0.020224      8.000000
  0.049296  0.024648  0.020224     16.000000
  0.073944  0.024648  0.020224     16.000000
  0.098592  0.024648  0.020224     16.000000
  0.123240  0.024648  0.020224     16.000000
  0.147888  0.024648  0.020224      8.000000
  0.049296  0.049296  0.020224      8.000000
  0.073944  0.049296  0.020224     16.000000
  0.098592  0.049296  0.020224     16.000000
  0.123240  0.049296  0.020224     16.000000
  0.147888  0.049296  0.020224      8.000000
  0.073944  0.073944  0.020224      8.000000
  0.098592  0.073944  0.020224     16.000000
  0.123240  0.073944  0.020224     16.000000
  0.147888  0.073944  0.020224      8.000000
  0.098592  0.098592  0.020224      8.000000
  0.123240  0.098592  0.020224     16.000000
  0.147888  0.098592  0.020224      8.000000
  0.123240  0.123240  0.020224      8.000000
  0.147888  0.123240  0.020224      8.000000
  0.147888  0.147888  0.020224      2.000000
  0.000000  0.000000  0.040448      2.000000
  0.024648  0.000000  0.040448      8.000000
  0.049296  0.000000  0.040448      8.000000
  0.073944  0.000000  0.040448      8.000000
  0.098592  0.000000  0.040448      8.000000
  0.123240  0.000000  0.040448      8.000000
  0.147888  0.000000  0.040448      4.000000
  0.024648  0.024648  0.040448      8.000000
  0.049296  0.024648  0.040448     16.000000
  0.073944  0.024648  0.040448     16.000000
  0.098592  0.024648  0.040448     16.000000
  0.123240  0.024648  0.040448     16.000000
  0.147888  0.024648  0.040448      8.000000
  0.049296  0.049296  0.040448      8.000000
  0.073944  0.049296  0.040448     16.000000
  0.098592  0.049296  0.040448     16.000000
  0.123240  0.049296  0.040448     16.000000
  0.147888  0.049296  0.040448      8.000000
  0.073944  0.073944  0.040448      8.000000
  0.098592  0.073944  0.040448     16.000000
  0.123240  0.073944  0.040448     16.000000
  0.147888  0.073944  0.040448      8.000000
  0.098592  0.098592  0.040448      8.000000
  0.123240  0.098592  0.040448     16.000000
  0.147888  0.098592  0.040448      8.000000
  0.123240  0.123240  0.040448      8.000000
  0.147888  0.123240  0.040448      8.000000
  0.147888  0.147888  0.040448      2.000000
  0.000000  0.000000  0.060672      2.000000
  0.024648  0.000000  0.060672      8.000000
  0.049296  0.000000  0.060672      8.000000
  0.073944  0.000000  0.060672      8.000000
  0.098592  0.000000  0.060672      8.000000
  0.123240  0.000000  0.060672      8.000000
  0.147888  0.000000  0.060672      4.000000
  0.024648  0.024648  0.060672      8.000000
  0.049296  0.024648  0.060672     16.000000
  0.073944  0.024648  0.060672     16.000000
  0.098592  0.024648  0.060672     16.000000
  0.123240  0.024648  0.060672     16.000000
  0.147888  0.024648  0.060672      8.000000
  0.049296  0.049296  0.060672      8.000000
  0.073944  0.049296  0.060672     16.000000
  0.098592  0.049296  0.060672     16.000000
  0.123240  0.049296  0.060672     16.000000
  0.147888  0.049296  0.060672      8.000000
  0.073944  0.073944  0.060672      8.000000
  0.098592  0.073944  0.060672     16.000000
  0.123240  0.073944  0.060672     16.000000
  0.147888  0.073944  0.060672      8.000000
  0.098592  0.098592  0.060672      8.000000
  0.123240  0.098592  0.060672     16.000000
  0.147888  0.098592  0.060672      8.000000
  0.123240  0.123240  0.060672      8.000000
  0.147888  0.123240  0.060672      8.000000
  0.147888  0.147888  0.060672      2.000000
  0.000000  0.000000  0.080896      2.000000
  0.024648  0.000000  0.080896      8.000000
  0.049296  0.000000  0.080896      8.000000
  0.073944  0.000000  0.080896      8.000000
  0.098592  0.000000  0.080896      8.000000
  0.123240  0.000000  0.080896      8.000000
  0.147888  0.000000  0.080896      4.000000
  0.024648  0.024648  0.080896      8.000000
  0.049296  0.024648  0.080896     16.000000
  0.073944  0.024648  0.080896     16.000000
  0.098592  0.024648  0.080896     16.000000
  0.123240  0.024648  0.080896     16.000000
  0.147888  0.024648  0.080896      8.000000
  0.049296  0.049296  0.080896      8.000000
  0.073944  0.049296  0.080896     16.000000
  0.098592  0.049296  0.080896     16.000000
  0.123240  0.049296  0.080896     16.000000
  0.147888  0.049296  0.080896      8.000000
  0.073944  0.073944  0.080896      8.000000
  0.098592  0.073944  0.080896     16.000000
  0.123240  0.073944  0.080896     16.000000
  0.147888  0.073944  0.080896      8.000000
  0.098592  0.098592  0.080896      8.000000
  0.123240  0.098592  0.080896     16.000000
  0.147888  0.098592  0.080896      8.000000
  0.123240  0.123240  0.080896      8.000000
  0.147888  0.123240  0.080896      8.000000
  0.147888  0.147888  0.080896      2.000000
  0.000000  0.000000  0.101119      2.000000
  0.024648  0.000000  0.101119      8.000000
  0.049296  0.000000  0.101119      8.000000
  0.073944  0.000000  0.101119      8.000000
  0.098592  0.000000  0.101119      8.000000
  0.123240  0.000000  0.101119      8.000000
  0.147888  0.000000  0.101119      4.000000
  0.024648  0.024648  0.101119      8.000000
  0.049296  0.024648  0.101119     16.000000
  0.073944  0.024648  0.101119     16.000000
  0.098592  0.024648  0.101119     16.000000
  0.123240  0.024648  0.101119     16.000000
  0.147888  0.024648  0.101119      8.000000
  0.049296  0.049296  0.101119      8.000000
  0.073944  0.049296  0.101119     16.000000
  0.098592  0.049296  0.101119     16.000000
  0.123240  0.049296  0.101119     16.000000
  0.147888  0.049296  0.101119      8.000000
  0.073944  0.073944  0.101119      8.000000
  0.098592  0.073944  0.101119     16.000000
  0.123240  0.073944  0.101119     16.000000
  0.147888  0.073944  0.101119      8.000000
  0.098592  0.098592  0.101119      8.000000
  0.123240  0.098592  0.101119     16.000000
  0.147888  0.098592  0.101119      8.000000
  0.123240  0.123240  0.101119      8.000000
  0.147888  0.123240  0.101119      8.000000
  0.147888  0.147888  0.101119      2.000000
  0.000000  0.000000  0.121343      1.000000
  0.024648  0.000000  0.121343      4.000000
  0.049296  0.000000  0.121343      4.000000
  0.073944  0.000000  0.121343      4.000000
  0.098592  0.000000  0.121343      4.000000
  0.123240  0.000000  0.121343      4.000000
  0.147888  0.000000  0.121343      2.000000
  0.024648  0.024648  0.121343      4.000000
  0.049296  0.024648  0.121343      8.000000
  0.073944  0.024648  0.121343      8.000000
  0.098592  0.024648  0.121343      8.000000
  0.123240  0.024648  0.121343      8.000000
  0.147888  0.024648  0.121343      4.000000
  0.049296  0.049296  0.121343      4.000000
  0.073944  0.049296  0.121343      8.000000
  0.098592  0.049296  0.121343      8.000000
  0.123240  0.049296  0.121343      8.000000
  0.147888  0.049296  0.121343      4.000000
  0.073944  0.073944  0.121343      4.000000
  0.098592  0.073944  0.121343      8.000000
  0.123240  0.073944  0.121343      8.000000
  0.147888  0.073944  0.121343      4.000000
  0.098592  0.098592  0.121343      4.000000
  0.123240  0.098592  0.121343      8.000000
  0.147888  0.098592  0.121343      4.000000
  0.123240  0.123240  0.121343      4.000000
  0.147888  0.123240  0.121343      4.000000
  0.147888  0.147888  0.121343      1.000000
 
 
 Subroutine IBZKPT_HF returns following result:
 ==============================================
 
 Found   1728 k-points in 1st BZ
 the following   1728 k-points will be used (e.g. in the exchange kernel)
 Following reciprocal coordinates:   # in IRBZ
  0.000000  0.000000  0.000000    0.00057870   1 t-inv F
  0.083333  0.000000  0.000000    0.00057870   2 t-inv F
  0.166667  0.000000  0.000000    0.00057870   3 t-inv F
  0.250000  0.000000  0.000000    0.00057870   4 t-inv F
  0.333333  0.000000  0.000000    0.00057870   5 t-inv F
  0.416667  0.000000  0.000000    0.00057870   6 t-inv F
  0.500000  0.000000  0.000000    0.00057870   7 t-inv F
  0.083333  0.083333  0.000000    0.00057870   8 t-inv F
  0.166667  0.083333  0.000000    0.00057870   9 t-inv F
  0.250000  0.083333  0.000000    0.00057870  10 t-inv F
  0.333333  0.083333  0.000000    0.00057870  11 t-inv F
  0.416667  0.083333  0.000000    0.00057870  12 t-inv F
  0.500000  0.083333  0.000000    0.00057870  13 t-inv F
  0.166667  0.166667  0.000000    0.00057870  14 t-inv F
  0.250000  0.166667  0.000000    0.00057870  15 t-inv F
  0.333333  0.166667  0.000000    0.00057870  16 t-inv F
  0.416667  0.166667  0.000000    0.00057870  17 t-inv F
  0.500000  0.166667  0.000000    0.00057870  18 t-inv F
  0.250000  0.250000  0.000000    0.00057870  19 t-inv F
  0.333333  0.250000  0.000000    0.00057870  20 t-inv F
  0.416667  0.250000  0.000000    0.00057870  21 t-inv F
  0.500000  0.250000  0.000000    0.00057870  22 t-inv F
  0.333333  0.333333  0.000000    0.00057870  23 t-inv F
  0.416667  0.333333  0.000000    0.00057870  24 t-inv F
  0.500000  0.333333  0.000000    0.00057870  25 t-inv F
  0.416667  0.416667  0.000000    0.00057870  26 t-inv F
  0.500000  0.416667  0.000000    0.00057870  27 t-inv F
  0.500000  0.500000  0.000000    0.00057870  28 t-inv F
  0.000000  0.000000  0.083333    0.00057870  29 t-inv F
  0.083333  0.000000  0.083333    0.00057870  30 t-inv F
  0.166667  0.000000  0.083333    0.00057870  31 t-inv F
  0.250000  0.000000  0.083333    0.00057870  32 t-inv F
  0.333333  0.000000  0.083333    0.00057870  33 t-inv F
  0.416667  0.000000  0.083333    0.00057870  34 t-inv F
  0.500000  0.000000  0.083333    0.00057870  35 t-inv F
  0.083333  0.083333  0.083333    0.00057870  36 t-inv F
  0.166667  0.083333  0.083333    0.00057870  37 t-inv F
  0.250000  0.083333  0.083333    0.00057870  38 t-inv F
  0.333333  0.083333  0.083333    0.00057870  39 t-inv F
  0.416667  0.083333  0.083333    0.00057870  40 t-inv F
  0.500000  0.083333  0.083333    0.00057870  41 t-inv F
  0.166667  0.166667  0.083333    0.00057870  42 t-inv F
  0.250000  0.166667  0.083333    0.00057870  43 t-inv F
  0.333333  0.166667  0.083333    0.00057870  44 t-inv F
  0.416667  0.166667  0.083333    0.00057870  45 t-inv F
  0.500000  0.166667  0.083333    0.00057870  46 t-inv F
  0.250000  0.250000  0.083333    0.00057870  47 t-inv F
  0.333333  0.250000  0.083333    0.00057870  48 t-inv F
  0.416667  0.250000  0.083333    0.00057870  49 t-inv F
  0.500000  0.250000  0.083333    0.00057870  50 t-inv F
  0.333333  0.333333  0.083333    0.00057870  51 t-inv F
  0.416667  0.333333  0.083333    0.00057870  52 t-inv F
  0.500000  0.333333  0.083333    0.00057870  53 t-inv F
  0.416667  0.416667  0.083333    0.00057870  54 t-inv F
  0.500000  0.416667  0.083333    0.00057870  55 t-inv F
  0.500000  0.500000  0.083333    0.00057870  56 t-inv F
  0.000000  0.000000  0.166667    0.00057870  57 t-inv F
  0.083333  0.000000  0.166667    0.00057870  58 t-inv F
  0.166667  0.000000  0.166667    0.00057870  59 t-inv F
  0.250000  0.000000  0.166667    0.00057870  60 t-inv F
  0.333333  0.000000  0.166667    0.00057870  61 t-inv F
  0.416667  0.000000  0.166667    0.00057870  62 t-inv F
  0.500000  0.000000  0.166667    0.00057870  63 t-inv F
  0.083333  0.083333  0.166667    0.00057870  64 t-inv F
  0.166667  0.083333  0.166667    0.00057870  65 t-inv F
  0.250000  0.083333  0.166667    0.00057870  66 t-inv F
  0.333333  0.083333  0.166667    0.00057870  67 t-inv F
  0.416667  0.083333  0.166667    0.00057870  68 t-inv F
  0.500000  0.083333  0.166667    0.00057870  69 t-inv F
  0.166667  0.166667  0.166667    0.00057870  70 t-inv F
  0.250000  0.166667  0.166667    0.00057870  71 t-inv F
  0.333333  0.166667  0.166667    0.00057870  72 t-inv F
  0.416667  0.166667  0.166667    0.00057870  73 t-inv F
  0.500000  0.166667  0.166667    0.00057870  74 t-inv F
  0.250000  0.250000  0.166667    0.00057870  75 t-inv F
  0.333333  0.250000  0.166667    0.00057870  76 t-inv F
  0.416667  0.250000  0.166667    0.00057870  77 t-inv F
  0.500000  0.250000  0.166667    0.00057870  78 t-inv F
  0.333333  0.333333  0.166667    0.00057870  79 t-inv F
  0.416667  0.333333  0.166667    0.00057870  80 t-inv F
  0.500000  0.333333  0.166667    0.00057870  81 t-inv F
  0.416667  0.416667  0.166667    0.00057870  82 t-inv F
  0.500000  0.416667  0.166667    0.00057870  83 t-inv F
  0.500000  0.500000  0.166667    0.00057870  84 t-inv F
  0.000000  0.000000  0.250000    0.00057870  85 t-inv F
  0.083333  0.000000  0.250000    0.00057870  86 t-inv F
  0.166667  0.000000  0.250000    0.00057870  87 t-inv F
  0.250000  0.000000  0.250000    0.00057870  88 t-inv F
  0.333333  0.000000  0.250000    0.00057870  89 t-inv F
  0.416667  0.000000  0.250000    0.00057870  90 t-inv F
  0.500000  0.000000  0.250000    0.00057870  91 t-inv F
  0.083333  0.083333  0.250000    0.00057870  92 t-inv F
  0.166667  0.083333  0.250000    0.00057870  93 t-inv F
  0.250000  0.083333  0.250000    0.00057870  94 t-inv F
  0.333333  0.083333  0.250000    0.00057870  95 t-inv F
  0.416667  0.083333  0.250000    0.00057870  96 t-inv F
  0.500000  0.083333  0.250000    0.00057870  97 t-inv F
  0.166667  0.166667  0.250000    0.00057870  98 t-inv F
  0.250000  0.166667  0.250000    0.00057870  99 t-inv F
  0.333333  0.166667  0.250000    0.00057870 100 t-inv F
  0.416667  0.166667  0.250000    0.00057870 101 t-inv F
  0.500000  0.166667  0.250000    0.00057870 102 t-inv F
  0.250000  0.250000  0.250000    0.00057870 103 t-inv F
  0.333333  0.250000  0.250000    0.00057870 104 t-inv F
  0.416667  0.250000  0.250000    0.00057870 105 t-inv F
  0.500000  0.250000  0.250000    0.00057870 106 t-inv F
  0.333333  0.333333  0.250000    0.00057870 107 t-inv F
  0.416667  0.333333  0.250000    0.00057870 108 t-inv F
  0.500000  0.333333  0.250000    0.00057870 109 t-inv F
  0.416667  0.416667  0.250000    0.00057870 110 t-inv F
  0.500000  0.416667  0.250000    0.00057870 111 t-inv F
  0.500000  0.500000  0.250000    0.00057870 112 t-inv F
  0.000000  0.000000  0.333333    0.00057870 113 t-inv F
  0.083333  0.000000  0.333333    0.00057870 114 t-inv F
  0.166667  0.000000  0.333333    0.00057870 115 t-inv F
  0.250000  0.000000  0.333333    0.00057870 116 t-inv F
  0.333333  0.000000  0.333333    0.00057870 117 t-inv F
  0.416667  0.000000  0.333333    0.00057870 118 t-inv F
  0.500000  0.000000  0.333333    0.00057870 119 t-inv F
  0.083333  0.083333  0.333333    0.00057870 120 t-inv F
  0.166667  0.083333  0.333333    0.00057870 121 t-inv F
  0.250000  0.083333  0.333333    0.00057870 122 t-inv F
  0.333333  0.083333  0.333333    0.00057870 123 t-inv F
  0.416667  0.083333  0.333333    0.00057870 124 t-inv F
  0.500000  0.083333  0.333333    0.00057870 125 t-inv F
  0.166667  0.166667  0.333333    0.00057870 126 t-inv F
  0.250000  0.166667  0.333333    0.00057870 127 t-inv F
  0.333333  0.166667  0.333333    0.00057870 128 t-inv F
  0.416667  0.166667  0.333333    0.00057870 129 t-inv F
  0.500000  0.166667  0.333333    0.00057870 130 t-inv F
  0.250000  0.250000  0.333333    0.00057870 131 t-inv F
  0.333333  0.250000  0.333333    0.00057870 132 t-inv F
  0.416667  0.250000  0.333333    0.00057870 133 t-inv F
  0.500000  0.250000  0.333333    0.00057870 134 t-inv F
  0.333333  0.333333  0.333333    0.00057870 135 t-inv F
  0.416667  0.333333  0.333333    0.00057870 136 t-inv F
  0.500000  0.333333  0.333333    0.00057870 137 t-inv F
  0.416667  0.416667  0.333333    0.00057870 138 t-inv F
  0.500000  0.416667  0.333333    0.00057870 139 t-inv F
  0.500000  0.500000  0.333333    0.00057870 140 t-inv F
  0.000000  0.000000  0.416667    0.00057870 141 t-inv F
  0.083333  0.000000  0.416667    0.00057870 142 t-inv F
  0.166667  0.000000  0.416667    0.00057870 143 t-inv F
  0.250000  0.000000  0.416667    0.00057870 144 t-inv F
  0.333333  0.000000  0.416667    0.00057870 145 t-inv F
  0.416667  0.000000  0.416667    0.00057870 146 t-inv F
  0.500000  0.000000  0.416667    0.00057870 147 t-inv F
  0.083333  0.083333  0.416667    0.00057870 148 t-inv F
  0.166667  0.083333  0.416667    0.00057870 149 t-inv F
  0.250000  0.083333  0.416667    0.00057870 150 t-inv F
  0.333333  0.083333  0.416667    0.00057870 151 t-inv F
  0.416667  0.083333  0.416667    0.00057870 152 t-inv F
  0.500000  0.083333  0.416667    0.00057870 153 t-inv F
  0.166667  0.166667  0.416667    0.00057870 154 t-inv F
  0.250000  0.166667  0.416667    0.00057870 155 t-inv F
  0.333333  0.166667  0.416667    0.00057870 156 t-inv F
  0.416667  0.166667  0.416667    0.00057870 157 t-inv F
  0.500000  0.166667  0.416667    0.00057870 158 t-inv F
  0.250000  0.250000  0.416667    0.00057870 159 t-inv F
  0.333333  0.250000  0.416667    0.00057870 160 t-inv F
  0.416667  0.250000  0.416667    0.00057870 161 t-inv F
  0.500000  0.250000  0.416667    0.00057870 162 t-inv F
  0.333333  0.333333  0.416667    0.00057870 163 t-inv F
  0.416667  0.333333  0.416667    0.00057870 164 t-inv F
  0.500000  0.333333  0.416667    0.00057870 165 t-inv F
  0.416667  0.416667  0.416667    0.00057870 166 t-inv F
  0.500000  0.416667  0.416667    0.00057870 167 t-inv F
  0.500000  0.500000  0.416667    0.00057870 168 t-inv F
  0.000000  0.000000  0.500000    0.00057870 169 t-inv F
  0.083333  0.000000  0.500000    0.00057870 170 t-inv F
  0.166667  0.000000  0.500000    0.00057870 171 t-inv F
  0.250000  0.000000  0.500000    0.00057870 172 t-inv F
  0.333333  0.000000  0.500000    0.00057870 173 t-inv F
  0.416667  0.000000  0.500000    0.00057870 174 t-inv F
  0.500000  0.000000  0.500000    0.00057870 175 t-inv F
  0.083333  0.083333  0.500000    0.00057870 176 t-inv F
  0.166667  0.083333  0.500000    0.00057870 177 t-inv F
  0.250000  0.083333  0.500000    0.00057870 178 t-inv F
  0.333333  0.083333  0.500000    0.00057870 179 t-inv F
  0.416667  0.083333  0.500000    0.00057870 180 t-inv F
  0.500000  0.083333  0.500000    0.00057870 181 t-inv F
  0.166667  0.166667  0.500000    0.00057870 182 t-inv F
  0.250000  0.166667  0.500000    0.00057870 183 t-inv F
  0.333333  0.166667  0.500000    0.00057870 184 t-inv F
  0.416667  0.166667  0.500000    0.00057870 185 t-inv F
  0.500000  0.166667  0.500000    0.00057870 186 t-inv F
  0.250000  0.250000  0.500000    0.00057870 187 t-inv F
  0.333333  0.250000  0.500000    0.00057870 188 t-inv F
  0.416667  0.250000  0.500000    0.00057870 189 t-inv F
  0.500000  0.250000  0.500000    0.00057870 190 t-inv F
  0.333333  0.333333  0.500000    0.00057870 191 t-inv F
  0.416667  0.333333  0.500000    0.00057870 192 t-inv F
  0.500000  0.333333  0.500000    0.00057870 193 t-inv F
  0.416667  0.416667  0.500000    0.00057870 194 t-inv F
  0.500000  0.416667  0.500000    0.00057870 195 t-inv F
  0.500000  0.500000  0.500000    0.00057870 196 t-inv F
 -0.083333 -0.000000 -0.000000    0.00057870   2 t-inv F
 -0.000000  0.083333  0.000000    0.00057870   2 t-inv F
  0.000000 -0.083333 -0.000000    0.00057870   2 t-inv F
 -0.166667 -0.000000 -0.000000    0.00057870   3 t-inv F
 -0.000000  0.166667  0.000000    0.00057870   3 t-inv F
  0.000000 -0.166667 -0.000000    0.00057870   3 t-inv F
 -0.250000 -0.000000 -0.000000    0.00057870   4 t-inv F
 -0.000000  0.250000  0.000000    0.00057870   4 t-inv F
  0.000000 -0.250000 -0.000000    0.00057870   4 t-inv F
 -0.333333 -0.000000 -0.000000    0.00057870   5 t-inv F
 -0.000000  0.333333  0.000000    0.00057870   5 t-inv F
  0.000000 -0.333333 -0.000000    0.00057870   5 t-inv F
 -0.416667 -0.000000 -0.000000    0.00057870   6 t-inv F
 -0.000000  0.416667  0.000000    0.00057870   6 t-inv F
  0.000000 -0.416667 -0.000000    0.00057870   6 t-inv F
 -0.000000  0.500000  0.000000    0.00057870   7 t-inv F
 -0.083333 -0.083333 -0.000000    0.00057870   8 t-inv F
 -0.083333  0.083333  0.000000    0.00057870   8 t-inv F
  0.083333 -0.083333 -0.000000    0.00057870   8 t-inv F
 -0.166667 -0.083333 -0.000000    0.00057870   9 t-inv F
 -0.083333  0.166667  0.000000    0.00057870   9 t-inv F
  0.083333 -0.166667 -0.000000    0.00057870   9 t-inv F
 -0.166667  0.083333 -0.000000    0.00057870   9 t-inv F
  0.166667 -0.083333  0.000000    0.00057870   9 t-inv F
  0.083333  0.166667 -0.000000    0.00057870   9 t-inv F
 -0.083333 -0.166667  0.000000    0.00057870   9 t-inv F
 -0.250000 -0.083333 -0.000000    0.00057870  10 t-inv F
 -0.083333  0.250000  0.000000    0.00057870  10 t-inv F
  0.083333 -0.250000 -0.000000    0.00057870  10 t-inv F
 -0.250000  0.083333 -0.000000    0.00057870  10 t-inv F
  0.250000 -0.083333  0.000000    0.00057870  10 t-inv F
  0.083333  0.250000 -0.000000    0.00057870  10 t-inv F
 -0.083333 -0.250000  0.000000    0.00057870  10 t-inv F
 -0.333333 -0.083333 -0.000000    0.00057870  11 t-inv F
 -0.083333  0.333333  0.000000    0.00057870  11 t-inv F
  0.083333 -0.333333 -0.000000    0.00057870  11 t-inv F
 -0.333333  0.083333 -0.000000    0.00057870  11 t-inv F
  0.333333 -0.083333  0.000000    0.00057870  11 t-inv F
  0.083333  0.333333 -0.000000    0.00057870  11 t-inv F
 -0.083333 -0.333333  0.000000    0.00057870  11 t-inv F
 -0.416667 -0.083333 -0.000000    0.00057870  12 t-inv F
 -0.083333  0.416667  0.000000    0.00057870  12 t-inv F
  0.083333 -0.416667 -0.000000    0.00057870  12 t-inv F
 -0.416667  0.083333 -0.000000    0.00057870  12 t-inv F
  0.416667 -0.083333  0.000000    0.00057870  12 t-inv F
  0.083333  0.416667 -0.000000    0.00057870  12 t-inv F
 -0.083333 -0.416667  0.000000    0.00057870  12 t-inv F
 -0.500000 -0.083333 -0.000000    0.00057870  13 t-inv F
 -0.083333  0.500000  0.000000    0.00057870  13 t-inv F
  0.083333 -0.500000 -0.000000    0.00057870  13 t-inv F
 -0.166667 -0.166667 -0.000000    0.00057870  14 t-inv F
 -0.166667  0.166667  0.000000    0.00057870  14 t-inv F
  0.166667 -0.166667 -0.000000    0.00057870  14 t-inv F
 -0.250000 -0.166667 -0.000000    0.00057870  15 t-inv F
 -0.166667  0.250000  0.000000    0.00057870  15 t-inv F
  0.166667 -0.250000 -0.000000    0.00057870  15 t-inv F
 -0.250000  0.166667 -0.000000    0.00057870  15 t-inv F
  0.250000 -0.166667  0.000000    0.00057870  15 t-inv F
  0.166667  0.250000 -0.000000    0.00057870  15 t-inv F
 -0.166667 -0.250000  0.000000    0.00057870  15 t-inv F
 -0.333333 -0.166667 -0.000000    0.00057870  16 t-inv F
 -0.166667  0.333333  0.000000    0.00057870  16 t-inv F
  0.166667 -0.333333 -0.000000    0.00057870  16 t-inv F
 -0.333333  0.166667 -0.000000    0.00057870  16 t-inv F
  0.333333 -0.166667  0.000000    0.00057870  16 t-inv F
  0.166667  0.333333 -0.000000    0.00057870  16 t-inv F
 -0.166667 -0.333333  0.000000    0.00057870  16 t-inv F
 -0.416667 -0.166667 -0.000000    0.00057870  17 t-inv F
 -0.166667  0.416667  0.000000    0.00057870  17 t-inv F
  0.166667 -0.416667 -0.000000    0.00057870  17 t-inv F
 -0.416667  0.166667 -0.000000    0.00057870  17 t-inv F
  0.416667 -0.166667  0.000000    0.00057870  17 t-inv F
  0.166667  0.416667 -0.000000    0.00057870  17 t-inv F
 -0.166667 -0.416667  0.000000    0.00057870  17 t-inv F
 -0.500000 -0.166667 -0.000000    0.00057870  18 t-inv F
 -0.166667  0.500000  0.000000    0.00057870  18 t-inv F
  0.166667 -0.500000 -0.000000    0.00057870  18 t-inv F
 -0.250000 -0.250000 -0.000000    0.00057870  19 t-inv F
 -0.250000  0.250000  0.000000    0.00057870  19 t-inv F
  0.250000 -0.250000 -0.000000    0.00057870  19 t-inv F
 -0.333333 -0.250000 -0.000000    0.00057870  20 t-inv F
 -0.250000  0.333333  0.000000    0.00057870  20 t-inv F
  0.250000 -0.333333 -0.000000    0.00057870  20 t-inv F
 -0.333333  0.250000 -0.000000    0.00057870  20 t-inv F
  0.333333 -0.250000  0.000000    0.00057870  20 t-inv F
  0.250000  0.333333 -0.000000    0.00057870  20 t-inv F
 -0.250000 -0.333333  0.000000    0.00057870  20 t-inv F
 -0.416667 -0.250000 -0.000000    0.00057870  21 t-inv F
 -0.250000  0.416667  0.000000    0.00057870  21 t-inv F
  0.250000 -0.416667 -0.000000    0.00057870  21 t-inv F
 -0.416667  0.250000 -0.000000    0.00057870  21 t-inv F
  0.416667 -0.250000  0.000000    0.00057870  21 t-inv F
  0.250000  0.416667 -0.000000    0.00057870  21 t-inv F
 -0.250000 -0.416667  0.000000    0.00057870  21 t-inv F
 -0.500000 -0.250000 -0.000000    0.00057870  22 t-inv F
 -0.250000  0.500000  0.000000    0.00057870  22 t-inv F
  0.250000 -0.500000 -0.000000    0.00057870  22 t-inv F
 -0.333333 -0.333333 -0.000000    0.00057870  23 t-inv F
 -0.333333  0.333333  0.000000    0.00057870  23 t-inv F
  0.333333 -0.333333 -0.000000    0.00057870  23 t-inv F
 -0.416667 -0.333333 -0.000000    0.00057870  24 t-inv F
 -0.333333  0.416667  0.000000    0.00057870  24 t-inv F
  0.333333 -0.416667 -0.000000    0.00057870  24 t-inv F
 -0.416667  0.333333 -0.000000    0.00057870  24 t-inv F
  0.416667 -0.333333  0.000000    0.00057870  24 t-inv F
  0.333333  0.416667 -0.000000    0.00057870  24 t-inv F
 -0.333333 -0.416667  0.000000    0.00057870  24 t-inv F
 -0.500000 -0.333333 -0.000000    0.00057870  25 t-inv F
 -0.333333  0.500000  0.000000    0.00057870  25 t-inv F
  0.333333 -0.500000 -0.000000    0.00057870  25 t-inv F
 -0.416667 -0.416667 -0.000000    0.00057870  26 t-inv F
 -0.416667  0.416667  0.000000    0.00057870  26 t-inv F
  0.416667 -0.416667 -0.000000    0.00057870  26 t-inv F
 -0.500000 -0.416667 -0.000000    0.00057870  27 t-inv F
 -0.416667  0.500000  0.000000    0.00057870  27 t-inv F
  0.416667 -0.500000 -0.000000    0.00057870  27 t-inv F
 -0.000000 -0.000000 -0.083333    0.00057870  29 t-inv F
 -0.083333 -0.000000 -0.083333    0.00057870  30 t-inv F
 -0.000000  0.083333  0.083333    0.00057870  30 t-inv F
  0.000000 -0.083333 -0.083333    0.00057870  30 t-inv F
 -0.083333 -0.000000  0.083333    0.00057870  30 t-inv F
  0.083333  0.000000 -0.083333    0.00057870  30 t-inv F
  0.000000 -0.083333  0.083333    0.00057870  30 t-inv F
 -0.000000  0.083333 -0.083333    0.00057870  30 t-inv F
 -0.166667 -0.000000 -0.083333    0.00057870  31 t-inv F
 -0.000000  0.166667  0.083333    0.00057870  31 t-inv F
  0.000000 -0.166667 -0.083333    0.00057870  31 t-inv F
 -0.166667 -0.000000  0.083333    0.00057870  31 t-inv F
  0.166667  0.000000 -0.083333    0.00057870  31 t-inv F
  0.000000 -0.166667  0.083333    0.00057870  31 t-inv F
 -0.000000  0.166667 -0.083333    0.00057870  31 t-inv F
 -0.250000 -0.000000 -0.083333    0.00057870  32 t-inv F
 -0.000000  0.250000  0.083333    0.00057870  32 t-inv F
  0.000000 -0.250000 -0.083333    0.00057870  32 t-inv F
 -0.250000 -0.000000  0.083333    0.00057870  32 t-inv F
  0.250000  0.000000 -0.083333    0.00057870  32 t-inv F
  0.000000 -0.250000  0.083333    0.00057870  32 t-inv F
 -0.000000  0.250000 -0.083333    0.00057870  32 t-inv F
 -0.333333 -0.000000 -0.083333    0.00057870  33 t-inv F
 -0.000000  0.333333  0.083333    0.00057870  33 t-inv F
  0.000000 -0.333333 -0.083333    0.00057870  33 t-inv F
 -0.333333 -0.000000  0.083333    0.00057870  33 t-inv F
  0.333333  0.000000 -0.083333    0.00057870  33 t-inv F
  0.000000 -0.333333  0.083333    0.00057870  33 t-inv F
 -0.000000  0.333333 -0.083333    0.00057870  33 t-inv F
 -0.416667 -0.000000 -0.083333    0.00057870  34 t-inv F
 -0.000000  0.416667  0.083333    0.00057870  34 t-inv F
  0.000000 -0.416667 -0.083333    0.00057870  34 t-inv F
 -0.416667 -0.000000  0.083333    0.00057870  34 t-inv F
  0.416667  0.000000 -0.083333    0.00057870  34 t-inv F
  0.000000 -0.416667  0.083333    0.00057870  34 t-inv F
 -0.000000  0.416667 -0.083333    0.00057870  34 t-inv F
 -0.500000 -0.000000 -0.083333    0.00057870  35 t-inv F
 -0.000000  0.500000  0.083333    0.00057870  35 t-inv F
  0.000000 -0.500000 -0.083333    0.00057870  35 t-inv F
 -0.083333 -0.083333 -0.083333    0.00057870  36 t-inv F
 -0.083333  0.083333  0.083333    0.00057870  36 t-inv F
  0.083333 -0.083333 -0.083333    0.00057870  36 t-inv F
 -0.083333 -0.083333  0.083333    0.00057870  36 t-inv F
  0.083333  0.083333 -0.083333    0.00057870  36 t-inv F
  0.083333 -0.083333  0.083333    0.00057870  36 t-inv F
 -0.083333  0.083333 -0.083333    0.00057870  36 t-inv F
 -0.166667 -0.083333 -0.083333    0.00057870  37 t-inv F
 -0.083333  0.166667  0.083333    0.00057870  37 t-inv F
  0.083333 -0.166667 -0.083333    0.00057870  37 t-inv F
 -0.166667 -0.083333  0.083333    0.00057870  37 t-inv F
  0.166667  0.083333 -0.083333    0.00057870  37 t-inv F
  0.083333 -0.166667  0.083333    0.00057870  37 t-inv F
 -0.083333  0.166667 -0.083333    0.00057870  37 t-inv F
 -0.166667  0.083333 -0.083333    0.00057870  37 t-inv F
  0.166667 -0.083333  0.083333    0.00057870  37 t-inv F
  0.083333  0.166667 -0.083333    0.00057870  37 t-inv F
 -0.083333 -0.166667  0.083333    0.00057870  37 t-inv F
  0.166667 -0.083333 -0.083333    0.00057870  37 t-inv F
 -0.166667  0.083333  0.083333    0.00057870  37 t-inv F
 -0.083333 -0.166667 -0.083333    0.00057870  37 t-inv F
  0.083333  0.166667  0.083333    0.00057870  37 t-inv F
 -0.250000 -0.083333 -0.083333    0.00057870  38 t-inv F
 -0.083333  0.250000  0.083333    0.00057870  38 t-inv F
  0.083333 -0.250000 -0.083333    0.00057870  38 t-inv F
 -0.250000 -0.083333  0.083333    0.00057870  38 t-inv F
  0.250000  0.083333 -0.083333    0.00057870  38 t-inv F
  0.083333 -0.250000  0.083333    0.00057870  38 t-inv F
 -0.083333  0.250000 -0.083333    0.00057870  38 t-inv F
 -0.250000  0.083333 -0.083333    0.00057870  38 t-inv F
  0.250000 -0.083333  0.083333    0.00057870  38 t-inv F
  0.083333  0.250000 -0.083333    0.00057870  38 t-inv F
 -0.083333 -0.250000  0.083333    0.00057870  38 t-inv F
  0.250000 -0.083333 -0.083333    0.00057870  38 t-inv F
 -0.250000  0.083333  0.083333    0.00057870  38 t-inv F
 -0.083333 -0.250000 -0.083333    0.00057870  38 t-inv F
  0.083333  0.250000  0.083333    0.00057870  38 t-inv F
 -0.333333 -0.083333 -0.083333    0.00057870  39 t-inv F
 -0.083333  0.333333  0.083333    0.00057870  39 t-inv F
  0.083333 -0.333333 -0.083333    0.00057870  39 t-inv F
 -0.333333 -0.083333  0.083333    0.00057870  39 t-inv F
  0.333333  0.083333 -0.083333    0.00057870  39 t-inv F
  0.083333 -0.333333  0.083333    0.00057870  39 t-inv F
 -0.083333  0.333333 -0.083333    0.00057870  39 t-inv F
 -0.333333  0.083333 -0.083333    0.00057870  39 t-inv F
  0.333333 -0.083333  0.083333    0.00057870  39 t-inv F
  0.083333  0.333333 -0.083333    0.00057870  39 t-inv F
 -0.083333 -0.333333  0.083333    0.00057870  39 t-inv F
  0.333333 -0.083333 -0.083333    0.00057870  39 t-inv F
 -0.333333  0.083333  0.083333    0.00057870  39 t-inv F
 -0.083333 -0.333333 -0.083333    0.00057870  39 t-inv F
  0.083333  0.333333  0.083333    0.00057870  39 t-inv F
 -0.416667 -0.083333 -0.083333    0.00057870  40 t-inv F
 -0.083333  0.416667  0.083333    0.00057870  40 t-inv F
  0.083333 -0.416667 -0.083333    0.00057870  40 t-inv F
 -0.416667 -0.083333  0.083333    0.00057870  40 t-inv F
  0.416667  0.083333 -0.083333    0.00057870  40 t-inv F
  0.083333 -0.416667  0.083333    0.00057870  40 t-inv F
 -0.083333  0.416667 -0.083333    0.00057870  40 t-inv F
 -0.416667  0.083333 -0.083333    0.00057870  40 t-inv F
  0.416667 -0.083333  0.083333    0.00057870  40 t-inv F
  0.083333  0.416667 -0.083333    0.00057870  40 t-inv F
 -0.083333 -0.416667  0.083333    0.00057870  40 t-inv F
  0.416667 -0.083333 -0.083333    0.00057870  40 t-inv F
 -0.416667  0.083333  0.083333    0.00057870  40 t-inv F
 -0.083333 -0.416667 -0.083333    0.00057870  40 t-inv F
  0.083333  0.416667  0.083333    0.00057870  40 t-inv F
 -0.500000 -0.083333 -0.083333    0.00057870  41 t-inv F
 -0.083333  0.500000  0.083333    0.00057870  41 t-inv F
  0.083333 -0.500000 -0.083333    0.00057870  41 t-inv F
 -0.500000 -0.083333  0.083333    0.00057870  41 t-inv F
  0.500000  0.083333 -0.083333    0.00057870  41 t-inv F
  0.083333 -0.500000  0.083333    0.00057870  41 t-inv F
 -0.083333  0.500000 -0.083333    0.00057870  41 t-inv F
 -0.166667 -0.166667 -0.083333    0.00057870  42 t-inv F
 -0.166667  0.166667  0.083333    0.00057870  42 t-inv F
  0.166667 -0.166667 -0.083333    0.00057870  42 t-inv F
 -0.166667 -0.166667  0.083333    0.00057870  42 t-inv F
  0.166667  0.166667 -0.083333    0.00057870  42 t-inv F
  0.166667 -0.166667  0.083333    0.00057870  42 t-inv F
 -0.166667  0.166667 -0.083333    0.00057870  42 t-inv F
 -0.250000 -0.166667 -0.083333    0.00057870  43 t-inv F
 -0.166667  0.250000  0.083333    0.00057870  43 t-inv F
  0.166667 -0.250000 -0.083333    0.00057870  43 t-inv F
 -0.250000 -0.166667  0.083333    0.00057870  43 t-inv F
  0.250000  0.166667 -0.083333    0.00057870  43 t-inv F
  0.166667 -0.250000  0.083333    0.00057870  43 t-inv F
 -0.166667  0.250000 -0.083333    0.00057870  43 t-inv F
 -0.250000  0.166667 -0.083333    0.00057870  43 t-inv F
  0.250000 -0.166667  0.083333    0.00057870  43 t-inv F
  0.166667  0.250000 -0.083333    0.00057870  43 t-inv F
 -0.166667 -0.250000  0.083333    0.00057870  43 t-inv F
  0.250000 -0.166667 -0.083333    0.00057870  43 t-inv F
 -0.250000  0.166667  0.083333    0.00057870  43 t-inv F
 -0.166667 -0.250000 -0.083333    0.00057870  43 t-inv F
  0.166667  0.250000  0.083333    0.00057870  43 t-inv F
 -0.333333 -0.166667 -0.083333    0.00057870  44 t-inv F
 -0.166667  0.333333  0.083333    0.00057870  44 t-inv F
  0.166667 -0.333333 -0.083333    0.00057870  44 t-inv F
 -0.333333 -0.166667  0.083333    0.00057870  44 t-inv F
  0.333333  0.166667 -0.083333    0.00057870  44 t-inv F
  0.166667 -0.333333  0.083333    0.00057870  44 t-inv F
 -0.166667  0.333333 -0.083333    0.00057870  44 t-inv F
 -0.333333  0.166667 -0.083333    0.00057870  44 t-inv F
  0.333333 -0.166667  0.083333    0.00057870  44 t-inv F
  0.166667  0.333333 -0.083333    0.00057870  44 t-inv F
 -0.166667 -0.333333  0.083333    0.00057870  44 t-inv F
  0.333333 -0.166667 -0.083333    0.00057870  44 t-inv F
 -0.333333  0.166667  0.083333    0.00057870  44 t-inv F
 -0.166667 -0.333333 -0.083333    0.00057870  44 t-inv F
  0.166667  0.333333  0.083333    0.00057870  44 t-inv F
 -0.416667 -0.166667 -0.083333    0.00057870  45 t-inv F
 -0.166667  0.416667  0.083333    0.00057870  45 t-inv F
  0.166667 -0.416667 -0.083333    0.00057870  45 t-inv F
 -0.416667 -0.166667  0.083333    0.00057870  45 t-inv F
  0.416667  0.166667 -0.083333    0.00057870  45 t-inv F
  0.166667 -0.416667  0.083333    0.00057870  45 t-inv F
 -0.166667  0.416667 -0.083333    0.00057870  45 t-inv F
 -0.416667  0.166667 -0.083333    0.00057870  45 t-inv F
  0.416667 -0.166667  0.083333    0.00057870  45 t-inv F
  0.166667  0.416667 -0.083333    0.00057870  45 t-inv F
 -0.166667 -0.416667  0.083333    0.00057870  45 t-inv F
  0.416667 -0.166667 -0.083333    0.00057870  45 t-inv F
 -0.416667  0.166667  0.083333    0.00057870  45 t-inv F
 -0.166667 -0.416667 -0.083333    0.00057870  45 t-inv F
  0.166667  0.416667  0.083333    0.00057870  45 t-inv F
 -0.500000 -0.166667 -0.083333    0.00057870  46 t-inv F
 -0.166667  0.500000  0.083333    0.00057870  46 t-inv F
  0.166667 -0.500000 -0.083333    0.00057870  46 t-inv F
 -0.500000 -0.166667  0.083333    0.00057870  46 t-inv F
  0.500000  0.166667 -0.083333    0.00057870  46 t-inv F
  0.166667 -0.500000  0.083333    0.00057870  46 t-inv F
 -0.166667  0.500000 -0.083333    0.00057870  46 t-inv F
 -0.250000 -0.250000 -0.083333    0.00057870  47 t-inv F
 -0.250000  0.250000  0.083333    0.00057870  47 t-inv F
  0.250000 -0.250000 -0.083333    0.00057870  47 t-inv F
 -0.250000 -0.250000  0.083333    0.00057870  47 t-inv F
  0.250000  0.250000 -0.083333    0.00057870  47 t-inv F
  0.250000 -0.250000  0.083333    0.00057870  47 t-inv F
 -0.250000  0.250000 -0.083333    0.00057870  47 t-inv F
 -0.333333 -0.250000 -0.083333    0.00057870  48 t-inv F
 -0.250000  0.333333  0.083333    0.00057870  48 t-inv F
  0.250000 -0.333333 -0.083333    0.00057870  48 t-inv F
 -0.333333 -0.250000  0.083333    0.00057870  48 t-inv F
  0.333333  0.250000 -0.083333    0.00057870  48 t-inv F
  0.250000 -0.333333  0.083333    0.00057870  48 t-inv F
 -0.250000  0.333333 -0.083333    0.00057870  48 t-inv F
 -0.333333  0.250000 -0.083333    0.00057870  48 t-inv F
  0.333333 -0.250000  0.083333    0.00057870  48 t-inv F
  0.250000  0.333333 -0.083333    0.00057870  48 t-inv F
 -0.250000 -0.333333  0.083333    0.00057870  48 t-inv F
  0.333333 -0.250000 -0.083333    0.00057870  48 t-inv F
 -0.333333  0.250000  0.083333    0.00057870  48 t-inv F
 -0.250000 -0.333333 -0.083333    0.00057870  48 t-inv F
  0.250000  0.333333  0.083333    0.00057870  48 t-inv F
 -0.416667 -0.250000 -0.083333    0.00057870  49 t-inv F
 -0.250000  0.416667  0.083333    0.00057870  49 t-inv F
  0.250000 -0.416667 -0.083333    0.00057870  49 t-inv F
 -0.416667 -0.250000  0.083333    0.00057870  49 t-inv F
  0.416667  0.250000 -0.083333    0.00057870  49 t-inv F
  0.250000 -0.416667  0.083333    0.00057870  49 t-inv F
 -0.250000  0.416667 -0.083333    0.00057870  49 t-inv F
 -0.416667  0.250000 -0.083333    0.00057870  49 t-inv F
  0.416667 -0.250000  0.083333    0.00057870  49 t-inv F
  0.250000  0.416667 -0.083333    0.00057870  49 t-inv F
 -0.250000 -0.416667  0.083333    0.00057870  49 t-inv F
  0.416667 -0.250000 -0.083333    0.00057870  49 t-inv F
 -0.416667  0.250000  0.083333    0.00057870  49 t-inv F
 -0.250000 -0.416667 -0.083333    0.00057870  49 t-inv F
  0.250000  0.416667  0.083333    0.00057870  49 t-inv F
 -0.500000 -0.250000 -0.083333    0.00057870  50 t-inv F
 -0.250000  0.500000  0.083333    0.00057870  50 t-inv F
  0.250000 -0.500000 -0.083333    0.00057870  50 t-inv F
 -0.500000 -0.250000  0.083333    0.00057870  50 t-inv F
  0.500000  0.250000 -0.083333    0.00057870  50 t-inv F
  0.250000 -0.500000  0.083333    0.00057870  50 t-inv F
 -0.250000  0.500000 -0.083333    0.00057870  50 t-inv F
 -0.333333 -0.333333 -0.083333    0.00057870  51 t-inv F
 -0.333333  0.333333  0.083333    0.00057870  51 t-inv F
  0.333333 -0.333333 -0.083333    0.00057870  51 t-inv F
 -0.333333 -0.333333  0.083333    0.00057870  51 t-inv F
  0.333333  0.333333 -0.083333    0.00057870  51 t-inv F
  0.333333 -0.333333  0.083333    0.00057870  51 t-inv F
 -0.333333  0.333333 -0.083333    0.00057870  51 t-inv F
 -0.416667 -0.333333 -0.083333    0.00057870  52 t-inv F
 -0.333333  0.416667  0.083333    0.00057870  52 t-inv F
  0.333333 -0.416667 -0.083333    0.00057870  52 t-inv F
 -0.416667 -0.333333  0.083333    0.00057870  52 t-inv F
  0.416667  0.333333 -0.083333    0.00057870  52 t-inv F
  0.333333 -0.416667  0.083333    0.00057870  52 t-inv F
 -0.333333  0.416667 -0.083333    0.00057870  52 t-inv F
 -0.416667  0.333333 -0.083333    0.00057870  52 t-inv F
  0.416667 -0.333333  0.083333    0.00057870  52 t-inv F
  0.333333  0.416667 -0.083333    0.00057870  52 t-inv F
 -0.333333 -0.416667  0.083333    0.00057870  52 t-inv F
  0.416667 -0.333333 -0.083333    0.00057870  52 t-inv F
 -0.416667  0.333333  0.083333    0.00057870  52 t-inv F
 -0.333333 -0.416667 -0.083333    0.00057870  52 t-inv F
  0.333333  0.416667  0.083333    0.00057870  52 t-inv F
 -0.500000 -0.333333 -0.083333    0.00057870  53 t-inv F
 -0.333333  0.500000  0.083333    0.00057870  53 t-inv F
  0.333333 -0.500000 -0.083333    0.00057870  53 t-inv F
 -0.500000 -0.333333  0.083333    0.00057870  53 t-inv F
  0.500000  0.333333 -0.083333    0.00057870  53 t-inv F
  0.333333 -0.500000  0.083333    0.00057870  53 t-inv F
 -0.333333  0.500000 -0.083333    0.00057870  53 t-inv F
 -0.416667 -0.416667 -0.083333    0.00057870  54 t-inv F
 -0.416667  0.416667  0.083333    0.00057870  54 t-inv F
  0.416667 -0.416667 -0.083333    0.00057870  54 t-inv F
 -0.416667 -0.416667  0.083333    0.00057870  54 t-inv F
  0.416667  0.416667 -0.083333    0.00057870  54 t-inv F
  0.416667 -0.416667  0.083333    0.00057870  54 t-inv F
 -0.416667  0.416667 -0.083333    0.00057870  54 t-inv F
 -0.500000 -0.416667 -0.083333    0.00057870  55 t-inv F
 -0.416667  0.500000  0.083333    0.00057870  55 t-inv F
  0.416667 -0.500000 -0.083333    0.00057870  55 t-inv F
 -0.500000 -0.416667  0.083333    0.00057870  55 t-inv F
  0.500000  0.416667 -0.083333    0.00057870  55 t-inv F
  0.416667 -0.500000  0.083333    0.00057870  55 t-inv F
 -0.416667  0.500000 -0.083333    0.00057870  55 t-inv F
 -0.500000 -0.500000 -0.083333    0.00057870  56 t-inv F
 -0.000000 -0.000000 -0.166667    0.00057870  57 t-inv F
 -0.083333 -0.000000 -0.166667    0.00057870  58 t-inv F
 -0.000000  0.083333  0.166667    0.00057870  58 t-inv F
  0.000000 -0.083333 -0.166667    0.00057870  58 t-inv F
 -0.083333 -0.000000  0.166667    0.00057870  58 t-inv F
  0.083333  0.000000 -0.166667    0.00057870  58 t-inv F
  0.000000 -0.083333  0.166667    0.00057870  58 t-inv F
 -0.000000  0.083333 -0.166667    0.00057870  58 t-inv F
 -0.166667 -0.000000 -0.166667    0.00057870  59 t-inv F
 -0.000000  0.166667  0.166667    0.00057870  59 t-inv F
  0.000000 -0.166667 -0.166667    0.00057870  59 t-inv F
 -0.166667 -0.000000  0.166667    0.00057870  59 t-inv F
  0.166667  0.000000 -0.166667    0.00057870  59 t-inv F
  0.000000 -0.166667  0.166667    0.00057870  59 t-inv F
 -0.000000  0.166667 -0.166667    0.00057870  59 t-inv F
 -0.250000 -0.000000 -0.166667    0.00057870  60 t-inv F
 -0.000000  0.250000  0.166667    0.00057870  60 t-inv F
  0.000000 -0.250000 -0.166667    0.00057870  60 t-inv F
 -0.250000 -0.000000  0.166667    0.00057870  60 t-inv F
  0.250000  0.000000 -0.166667    0.00057870  60 t-inv F
  0.000000 -0.250000  0.166667    0.00057870  60 t-inv F
 -0.000000  0.250000 -0.166667    0.00057870  60 t-inv F
 -0.333333 -0.000000 -0.166667    0.00057870  61 t-inv F
 -0.000000  0.333333  0.166667    0.00057870  61 t-inv F
  0.000000 -0.333333 -0.166667    0.00057870  61 t-inv F
 -0.333333 -0.000000  0.166667    0.00057870  61 t-inv F
  0.333333  0.000000 -0.166667    0.00057870  61 t-inv F
  0.000000 -0.333333  0.166667    0.00057870  61 t-inv F
 -0.000000  0.333333 -0.166667    0.00057870  61 t-inv F
 -0.416667 -0.000000 -0.166667    0.00057870  62 t-inv F
 -0.000000  0.416667  0.166667    0.00057870  62 t-inv F
  0.000000 -0.416667 -0.166667    0.00057870  62 t-inv F
 -0.416667 -0.000000  0.166667    0.00057870  62 t-inv F
  0.416667  0.000000 -0.166667    0.00057870  62 t-inv F
  0.000000 -0.416667  0.166667    0.00057870  62 t-inv F
 -0.000000  0.416667 -0.166667    0.00057870  62 t-inv F
 -0.500000 -0.000000 -0.166667    0.00057870  63 t-inv F
 -0.000000  0.500000  0.166667    0.00057870  63 t-inv F
  0.000000 -0.500000 -0.166667    0.00057870  63 t-inv F
 -0.083333 -0.083333 -0.166667    0.00057870  64 t-inv F
 -0.083333  0.083333  0.166667    0.00057870  64 t-inv F
  0.083333 -0.083333 -0.166667    0.00057870  64 t-inv F
 -0.083333 -0.083333  0.166667    0.00057870  64 t-inv F
  0.083333  0.083333 -0.166667    0.00057870  64 t-inv F
  0.083333 -0.083333  0.166667    0.00057870  64 t-inv F
 -0.083333  0.083333 -0.166667    0.00057870  64 t-inv F
 -0.166667 -0.083333 -0.166667    0.00057870  65 t-inv F
 -0.083333  0.166667  0.166667    0.00057870  65 t-inv F
  0.083333 -0.166667 -0.166667    0.00057870  65 t-inv F
 -0.166667 -0.083333  0.166667    0.00057870  65 t-inv F
  0.166667  0.083333 -0.166667    0.00057870  65 t-inv F
  0.083333 -0.166667  0.166667    0.00057870  65 t-inv F
 -0.083333  0.166667 -0.166667    0.00057870  65 t-inv F
 -0.166667  0.083333 -0.166667    0.00057870  65 t-inv F
  0.166667 -0.083333  0.166667    0.00057870  65 t-inv F
  0.083333  0.166667 -0.166667    0.00057870  65 t-inv F
 -0.083333 -0.166667  0.166667    0.00057870  65 t-inv F
  0.166667 -0.083333 -0.166667    0.00057870  65 t-inv F
 -0.166667  0.083333  0.166667    0.00057870  65 t-inv F
 -0.083333 -0.166667 -0.166667    0.00057870  65 t-inv F
  0.083333  0.166667  0.166667    0.00057870  65 t-inv F
 -0.250000 -0.083333 -0.166667    0.00057870  66 t-inv F
 -0.083333  0.250000  0.166667    0.00057870  66 t-inv F
  0.083333 -0.250000 -0.166667    0.00057870  66 t-inv F
 -0.250000 -0.083333  0.166667    0.00057870  66 t-inv F
  0.250000  0.083333 -0.166667    0.00057870  66 t-inv F
  0.083333 -0.250000  0.166667    0.00057870  66 t-inv F
 -0.083333  0.250000 -0.166667    0.00057870  66 t-inv F
 -0.250000  0.083333 -0.166667    0.00057870  66 t-inv F
  0.250000 -0.083333  0.166667    0.00057870  66 t-inv F
  0.083333  0.250000 -0.166667    0.00057870  66 t-inv F
 -0.083333 -0.250000  0.166667    0.00057870  66 t-inv F
  0.250000 -0.083333 -0.166667    0.00057870  66 t-inv F
 -0.250000  0.083333  0.166667    0.00057870  66 t-inv F
 -0.083333 -0.250000 -0.166667    0.00057870  66 t-inv F
  0.083333  0.250000  0.166667    0.00057870  66 t-inv F
 -0.333333 -0.083333 -0.166667    0.00057870  67 t-inv F
 -0.083333  0.333333  0.166667    0.00057870  67 t-inv F
  0.083333 -0.333333 -0.166667    0.00057870  67 t-inv F
 -0.333333 -0.083333  0.166667    0.00057870  67 t-inv F
  0.333333  0.083333 -0.166667    0.00057870  67 t-inv F
  0.083333 -0.333333  0.166667    0.00057870  67 t-inv F
 -0.083333  0.333333 -0.166667    0.00057870  67 t-inv F
 -0.333333  0.083333 -0.166667    0.00057870  67 t-inv F
  0.333333 -0.083333  0.166667    0.00057870  67 t-inv F
  0.083333  0.333333 -0.166667    0.00057870  67 t-inv F
 -0.083333 -0.333333  0.166667    0.00057870  67 t-inv F
  0.333333 -0.083333 -0.166667    0.00057870  67 t-inv F
 -0.333333  0.083333  0.166667    0.00057870  67 t-inv F
 -0.083333 -0.333333 -0.166667    0.00057870  67 t-inv F
  0.083333  0.333333  0.166667    0.00057870  67 t-inv F
 -0.416667 -0.083333 -0.166667    0.00057870  68 t-inv F
 -0.083333  0.416667  0.166667    0.00057870  68 t-inv F
  0.083333 -0.416667 -0.166667    0.00057870  68 t-inv F
 -0.416667 -0.083333  0.166667    0.00057870  68 t-inv F
  0.416667  0.083333 -0.166667    0.00057870  68 t-inv F
  0.083333 -0.416667  0.166667    0.00057870  68 t-inv F
 -0.083333  0.416667 -0.166667    0.00057870  68 t-inv F
 -0.416667  0.083333 -0.166667    0.00057870  68 t-inv F
  0.416667 -0.083333  0.166667    0.00057870  68 t-inv F
  0.083333  0.416667 -0.166667    0.00057870  68 t-inv F
 -0.083333 -0.416667  0.166667    0.00057870  68 t-inv F
  0.416667 -0.083333 -0.166667    0.00057870  68 t-inv F
 -0.416667  0.083333  0.166667    0.00057870  68 t-inv F
 -0.083333 -0.416667 -0.166667    0.00057870  68 t-inv F
  0.083333  0.416667  0.166667    0.00057870  68 t-inv F
 -0.500000 -0.083333 -0.166667    0.00057870  69 t-inv F
 -0.083333  0.500000  0.166667    0.00057870  69 t-inv F
  0.083333 -0.500000 -0.166667    0.00057870  69 t-inv F
 -0.500000 -0.083333  0.166667    0.00057870  69 t-inv F
  0.500000  0.083333 -0.166667    0.00057870  69 t-inv F
  0.083333 -0.500000  0.166667    0.00057870  69 t-inv F
 -0.083333  0.500000 -0.166667    0.00057870  69 t-inv F
 -0.166667 -0.166667 -0.166667    0.00057870  70 t-inv F
 -0.166667  0.166667  0.166667    0.00057870  70 t-inv F
  0.166667 -0.166667 -0.166667    0.00057870  70 t-inv F
 -0.166667 -0.166667  0.166667    0.00057870  70 t-inv F
  0.166667  0.166667 -0.166667    0.00057870  70 t-inv F
  0.166667 -0.166667  0.166667    0.00057870  70 t-inv F
 -0.166667  0.166667 -0.166667    0.00057870  70 t-inv F
 -0.250000 -0.166667 -0.166667    0.00057870  71 t-inv F
 -0.166667  0.250000  0.166667    0.00057870  71 t-inv F
  0.166667 -0.250000 -0.166667    0.00057870  71 t-inv F
 -0.250000 -0.166667  0.166667    0.00057870  71 t-inv F
  0.250000  0.166667 -0.166667    0.00057870  71 t-inv F
  0.166667 -0.250000  0.166667    0.00057870  71 t-inv F
 -0.166667  0.250000 -0.166667    0.00057870  71 t-inv F
 -0.250000  0.166667 -0.166667    0.00057870  71 t-inv F
  0.250000 -0.166667  0.166667    0.00057870  71 t-inv F
  0.166667  0.250000 -0.166667    0.00057870  71 t-inv F
 -0.166667 -0.250000  0.166667    0.00057870  71 t-inv F
  0.250000 -0.166667 -0.166667    0.00057870  71 t-inv F
 -0.250000  0.166667  0.166667    0.00057870  71 t-inv F
 -0.166667 -0.250000 -0.166667    0.00057870  71 t-inv F
  0.166667  0.250000  0.166667    0.00057870  71 t-inv F
 -0.333333 -0.166667 -0.166667    0.00057870  72 t-inv F
 -0.166667  0.333333  0.166667    0.00057870  72 t-inv F
  0.166667 -0.333333 -0.166667    0.00057870  72 t-inv F
 -0.333333 -0.166667  0.166667    0.00057870  72 t-inv F
  0.333333  0.166667 -0.166667    0.00057870  72 t-inv F
  0.166667 -0.333333  0.166667    0.00057870  72 t-inv F
 -0.166667  0.333333 -0.166667    0.00057870  72 t-inv F
 -0.333333  0.166667 -0.166667    0.00057870  72 t-inv F
  0.333333 -0.166667  0.166667    0.00057870  72 t-inv F
  0.166667  0.333333 -0.166667    0.00057870  72 t-inv F
 -0.166667 -0.333333  0.166667    0.00057870  72 t-inv F
  0.333333 -0.166667 -0.166667    0.00057870  72 t-inv F
 -0.333333  0.166667  0.166667    0.00057870  72 t-inv F
 -0.166667 -0.333333 -0.166667    0.00057870  72 t-inv F
  0.166667  0.333333  0.166667    0.00057870  72 t-inv F
 -0.416667 -0.166667 -0.166667    0.00057870  73 t-inv F
 -0.166667  0.416667  0.166667    0.00057870  73 t-inv F
  0.166667 -0.416667 -0.166667    0.00057870  73 t-inv F
 -0.416667 -0.166667  0.166667    0.00057870  73 t-inv F
  0.416667  0.166667 -0.166667    0.00057870  73 t-inv F
  0.166667 -0.416667  0.166667    0.00057870  73 t-inv F
 -0.166667  0.416667 -0.166667    0.00057870  73 t-inv F
 -0.416667  0.166667 -0.166667    0.00057870  73 t-inv F
  0.416667 -0.166667  0.166667    0.00057870  73 t-inv F
  0.166667  0.416667 -0.166667    0.00057870  73 t-inv F
 -0.166667 -0.416667  0.166667    0.00057870  73 t-inv F
  0.416667 -0.166667 -0.166667    0.00057870  73 t-inv F
 -0.416667  0.166667  0.166667    0.00057870  73 t-inv F
 -0.166667 -0.416667 -0.166667    0.00057870  73 t-inv F
  0.166667  0.416667  0.166667    0.00057870  73 t-inv F
 -0.500000 -0.166667 -0.166667    0.00057870  74 t-inv F
 -0.166667  0.500000  0.166667    0.00057870  74 t-inv F
  0.166667 -0.500000 -0.166667    0.00057870  74 t-inv F
 -0.500000 -0.166667  0.166667    0.00057870  74 t-inv F
  0.500000  0.166667 -0.166667    0.00057870  74 t-inv F
  0.166667 -0.500000  0.166667    0.00057870  74 t-inv F
 -0.166667  0.500000 -0.166667    0.00057870  74 t-inv F
 -0.250000 -0.250000 -0.166667    0.00057870  75 t-inv F
 -0.250000  0.250000  0.166667    0.00057870  75 t-inv F
  0.250000 -0.250000 -0.166667    0.00057870  75 t-inv F
 -0.250000 -0.250000  0.166667    0.00057870  75 t-inv F
  0.250000  0.250000 -0.166667    0.00057870  75 t-inv F
  0.250000 -0.250000  0.166667    0.00057870  75 t-inv F
 -0.250000  0.250000 -0.166667    0.00057870  75 t-inv F
 -0.333333 -0.250000 -0.166667    0.00057870  76 t-inv F
 -0.250000  0.333333  0.166667    0.00057870  76 t-inv F
  0.250000 -0.333333 -0.166667    0.00057870  76 t-inv F
 -0.333333 -0.250000  0.166667    0.00057870  76 t-inv F
  0.333333  0.250000 -0.166667    0.00057870  76 t-inv F
  0.250000 -0.333333  0.166667    0.00057870  76 t-inv F
 -0.250000  0.333333 -0.166667    0.00057870  76 t-inv F
 -0.333333  0.250000 -0.166667    0.00057870  76 t-inv F
  0.333333 -0.250000  0.166667    0.00057870  76 t-inv F
  0.250000  0.333333 -0.166667    0.00057870  76 t-inv F
 -0.250000 -0.333333  0.166667    0.00057870  76 t-inv F
  0.333333 -0.250000 -0.166667    0.00057870  76 t-inv F
 -0.333333  0.250000  0.166667    0.00057870  76 t-inv F
 -0.250000 -0.333333 -0.166667    0.00057870  76 t-inv F
  0.250000  0.333333  0.166667    0.00057870  76 t-inv F
 -0.416667 -0.250000 -0.166667    0.00057870  77 t-inv F
 -0.250000  0.416667  0.166667    0.00057870  77 t-inv F
  0.250000 -0.416667 -0.166667    0.00057870  77 t-inv F
 -0.416667 -0.250000  0.166667    0.00057870  77 t-inv F
  0.416667  0.250000 -0.166667    0.00057870  77 t-inv F
  0.250000 -0.416667  0.166667    0.00057870  77 t-inv F
 -0.250000  0.416667 -0.166667    0.00057870  77 t-inv F
 -0.416667  0.250000 -0.166667    0.00057870  77 t-inv F
  0.416667 -0.250000  0.166667    0.00057870  77 t-inv F
  0.250000  0.416667 -0.166667    0.00057870  77 t-inv F
 -0.250000 -0.416667  0.166667    0.00057870  77 t-inv F
  0.416667 -0.250000 -0.166667    0.00057870  77 t-inv F
 -0.416667  0.250000  0.166667    0.00057870  77 t-inv F
 -0.250000 -0.416667 -0.166667    0.00057870  77 t-inv F
  0.250000  0.416667  0.166667    0.00057870  77 t-inv F
 -0.500000 -0.250000 -0.166667    0.00057870  78 t-inv F
 -0.250000  0.500000  0.166667    0.00057870  78 t-inv F
  0.250000 -0.500000 -0.166667    0.00057870  78 t-inv F
 -0.500000 -0.250000  0.166667    0.00057870  78 t-inv F
  0.500000  0.250000 -0.166667    0.00057870  78 t-inv F
  0.250000 -0.500000  0.166667    0.00057870  78 t-inv F
 -0.250000  0.500000 -0.166667    0.00057870  78 t-inv F
 -0.333333 -0.333333 -0.166667    0.00057870  79 t-inv F
 -0.333333  0.333333  0.166667    0.00057870  79 t-inv F
  0.333333 -0.333333 -0.166667    0.00057870  79 t-inv F
 -0.333333 -0.333333  0.166667    0.00057870  79 t-inv F
  0.333333  0.333333 -0.166667    0.00057870  79 t-inv F
  0.333333 -0.333333  0.166667    0.00057870  79 t-inv F
 -0.333333  0.333333 -0.166667    0.00057870  79 t-inv F
 -0.416667 -0.333333 -0.166667    0.00057870  80 t-inv F
 -0.333333  0.416667  0.166667    0.00057870  80 t-inv F
  0.333333 -0.416667 -0.166667    0.00057870  80 t-inv F
 -0.416667 -0.333333  0.166667    0.00057870  80 t-inv F
  0.416667  0.333333 -0.166667    0.00057870  80 t-inv F
  0.333333 -0.416667  0.166667    0.00057870  80 t-inv F
 -0.333333  0.416667 -0.166667    0.00057870  80 t-inv F
 -0.416667  0.333333 -0.166667    0.00057870  80 t-inv F
  0.416667 -0.333333  0.166667    0.00057870  80 t-inv F
  0.333333  0.416667 -0.166667    0.00057870  80 t-inv F
 -0.333333 -0.416667  0.166667    0.00057870  80 t-inv F
  0.416667 -0.333333 -0.166667    0.00057870  80 t-inv F
 -0.416667  0.333333  0.166667    0.00057870  80 t-inv F
 -0.333333 -0.416667 -0.166667    0.00057870  80 t-inv F
  0.333333  0.416667  0.166667    0.00057870  80 t-inv F
 -0.500000 -0.333333 -0.166667    0.00057870  81 t-inv F
 -0.333333  0.500000  0.166667    0.00057870  81 t-inv F
  0.333333 -0.500000 -0.166667    0.00057870  81 t-inv F
 -0.500000 -0.333333  0.166667    0.00057870  81 t-inv F
  0.500000  0.333333 -0.166667    0.00057870  81 t-inv F
  0.333333 -0.500000  0.166667    0.00057870  81 t-inv F
 -0.333333  0.500000 -0.166667    0.00057870  81 t-inv F
 -0.416667 -0.416667 -0.166667    0.00057870  82 t-inv F
 -0.416667  0.416667  0.166667    0.00057870  82 t-inv F
  0.416667 -0.416667 -0.166667    0.00057870  82 t-inv F
 -0.416667 -0.416667  0.166667    0.00057870  82 t-inv F
  0.416667  0.416667 -0.166667    0.00057870  82 t-inv F
  0.416667 -0.416667  0.166667    0.00057870  82 t-inv F
 -0.416667  0.416667 -0.166667    0.00057870  82 t-inv F
 -0.500000 -0.416667 -0.166667    0.00057870  83 t-inv F
 -0.416667  0.500000  0.166667    0.00057870  83 t-inv F
  0.416667 -0.500000 -0.166667    0.00057870  83 t-inv F
 -0.500000 -0.416667  0.166667    0.00057870  83 t-inv F
  0.500000  0.416667 -0.166667    0.00057870  83 t-inv F
  0.416667 -0.500000  0.166667    0.00057870  83 t-inv F
 -0.416667  0.500000 -0.166667    0.00057870  83 t-inv F
 -0.500000 -0.500000 -0.166667    0.00057870  84 t-inv F
 -0.000000 -0.000000 -0.250000    0.00057870  85 t-inv F
 -0.083333 -0.000000 -0.250000    0.00057870  86 t-inv F
 -0.000000  0.083333  0.250000    0.00057870  86 t-inv F
  0.000000 -0.083333 -0.250000    0.00057870  86 t-inv F
 -0.083333 -0.000000  0.250000    0.00057870  86 t-inv F
  0.083333  0.000000 -0.250000    0.00057870  86 t-inv F
  0.000000 -0.083333  0.250000    0.00057870  86 t-inv F
 -0.000000  0.083333 -0.250000    0.00057870  86 t-inv F
 -0.166667 -0.000000 -0.250000    0.00057870  87 t-inv F
 -0.000000  0.166667  0.250000    0.00057870  87 t-inv F
  0.000000 -0.166667 -0.250000    0.00057870  87 t-inv F
 -0.166667 -0.000000  0.250000    0.00057870  87 t-inv F
  0.166667  0.000000 -0.250000    0.00057870  87 t-inv F
  0.000000 -0.166667  0.250000    0.00057870  87 t-inv F
 -0.000000  0.166667 -0.250000    0.00057870  87 t-inv F
 -0.250000 -0.000000 -0.250000    0.00057870  88 t-inv F
 -0.000000  0.250000  0.250000    0.00057870  88 t-inv F
  0.000000 -0.250000 -0.250000    0.00057870  88 t-inv F
 -0.250000 -0.000000  0.250000    0.00057870  88 t-inv F
  0.250000  0.000000 -0.250000    0.00057870  88 t-inv F
  0.000000 -0.250000  0.250000    0.00057870  88 t-inv F
 -0.000000  0.250000 -0.250000    0.00057870  88 t-inv F
 -0.333333 -0.000000 -0.250000    0.00057870  89 t-inv F
 -0.000000  0.333333  0.250000    0.00057870  89 t-inv F
  0.000000 -0.333333 -0.250000    0.00057870  89 t-inv F
 -0.333333 -0.000000  0.250000    0.00057870  89 t-inv F
  0.333333  0.000000 -0.250000    0.00057870  89 t-inv F
  0.000000 -0.333333  0.250000    0.00057870  89 t-inv F
 -0.000000  0.333333 -0.250000    0.00057870  89 t-inv F
 -0.416667 -0.000000 -0.250000    0.00057870  90 t-inv F
 -0.000000  0.416667  0.250000    0.00057870  90 t-inv F
  0.000000 -0.416667 -0.250000    0.00057870  90 t-inv F
 -0.416667 -0.000000  0.250000    0.00057870  90 t-inv F
  0.416667  0.000000 -0.250000    0.00057870  90 t-inv F
  0.000000 -0.416667  0.250000    0.00057870  90 t-inv F
 -0.000000  0.416667 -0.250000    0.00057870  90 t-inv F
 -0.500000 -0.000000 -0.250000    0.00057870  91 t-inv F
 -0.000000  0.500000  0.250000    0.00057870  91 t-inv F
  0.000000 -0.500000 -0.250000    0.00057870  91 t-inv F
 -0.083333 -0.083333 -0.250000    0.00057870  92 t-inv F
 -0.083333  0.083333  0.250000    0.00057870  92 t-inv F
  0.083333 -0.083333 -0.250000    0.00057870  92 t-inv F
 -0.083333 -0.083333  0.250000    0.00057870  92 t-inv F
  0.083333  0.083333 -0.250000    0.00057870  92 t-inv F
  0.083333 -0.083333  0.250000    0.00057870  92 t-inv F
 -0.083333  0.083333 -0.250000    0.00057870  92 t-inv F
 -0.166667 -0.083333 -0.250000    0.00057870  93 t-inv F
 -0.083333  0.166667  0.250000    0.00057870  93 t-inv F
  0.083333 -0.166667 -0.250000    0.00057870  93 t-inv F
 -0.166667 -0.083333  0.250000    0.00057870  93 t-inv F
  0.166667  0.083333 -0.250000    0.00057870  93 t-inv F
  0.083333 -0.166667  0.250000    0.00057870  93 t-inv F
 -0.083333  0.166667 -0.250000    0.00057870  93 t-inv F
 -0.166667  0.083333 -0.250000    0.00057870  93 t-inv F
  0.166667 -0.083333  0.250000    0.00057870  93 t-inv F
  0.083333  0.166667 -0.250000    0.00057870  93 t-inv F
 -0.083333 -0.166667  0.250000    0.00057870  93 t-inv F
  0.166667 -0.083333 -0.250000    0.00057870  93 t-inv F
 -0.166667  0.083333  0.250000    0.00057870  93 t-inv F
 -0.083333 -0.166667 -0.250000    0.00057870  93 t-inv F
  0.083333  0.166667  0.250000    0.00057870  93 t-inv F
 -0.250000 -0.083333 -0.250000    0.00057870  94 t-inv F
 -0.083333  0.250000  0.250000    0.00057870  94 t-inv F
  0.083333 -0.250000 -0.250000    0.00057870  94 t-inv F
 -0.250000 -0.083333  0.250000    0.00057870  94 t-inv F
  0.250000  0.083333 -0.250000    0.00057870  94 t-inv F
  0.083333 -0.250000  0.250000    0.00057870  94 t-inv F
 -0.083333  0.250000 -0.250000    0.00057870  94 t-inv F
 -0.250000  0.083333 -0.250000    0.00057870  94 t-inv F
  0.250000 -0.083333  0.250000    0.00057870  94 t-inv F
  0.083333  0.250000 -0.250000    0.00057870  94 t-inv F
 -0.083333 -0.250000  0.250000    0.00057870  94 t-inv F
  0.250000 -0.083333 -0.250000    0.00057870  94 t-inv F
 -0.250000  0.083333  0.250000    0.00057870  94 t-inv F
 -0.083333 -0.250000 -0.250000    0.00057870  94 t-inv F
  0.083333  0.250000  0.250000    0.00057870  94 t-inv F
 -0.333333 -0.083333 -0.250000    0.00057870  95 t-inv F
 -0.083333  0.333333  0.250000    0.00057870  95 t-inv F
  0.083333 -0.333333 -0.250000    0.00057870  95 t-inv F
 -0.333333 -0.083333  0.250000    0.00057870  95 t-inv F
  0.333333  0.083333 -0.250000    0.00057870  95 t-inv F
  0.083333 -0.333333  0.250000    0.00057870  95 t-inv F
 -0.083333  0.333333 -0.250000    0.00057870  95 t-inv F
 -0.333333  0.083333 -0.250000    0.00057870  95 t-inv F
  0.333333 -0.083333  0.250000    0.00057870  95 t-inv F
  0.083333  0.333333 -0.250000    0.00057870  95 t-inv F
 -0.083333 -0.333333  0.250000    0.00057870  95 t-inv F
  0.333333 -0.083333 -0.250000    0.00057870  95 t-inv F
 -0.333333  0.083333  0.250000    0.00057870  95 t-inv F
 -0.083333 -0.333333 -0.250000    0.00057870  95 t-inv F
  0.083333  0.333333  0.250000    0.00057870  95 t-inv F
 -0.416667 -0.083333 -0.250000    0.00057870  96 t-inv F
 -0.083333  0.416667  0.250000    0.00057870  96 t-inv F
  0.083333 -0.416667 -0.250000    0.00057870  96 t-inv F
 -0.416667 -0.083333  0.250000    0.00057870  96 t-inv F
  0.416667  0.083333 -0.250000    0.00057870  96 t-inv F
  0.083333 -0.416667  0.250000    0.00057870  96 t-inv F
 -0.083333  0.416667 -0.250000    0.00057870  96 t-inv F
 -0.416667  0.083333 -0.250000    0.00057870  96 t-inv F
  0.416667 -0.083333  0.250000    0.00057870  96 t-inv F
  0.083333  0.416667 -0.250000    0.00057870  96 t-inv F
 -0.083333 -0.416667  0.250000    0.00057870  96 t-inv F
  0.416667 -0.083333 -0.250000    0.00057870  96 t-inv F
 -0.416667  0.083333  0.250000    0.00057870  96 t-inv F
 -0.083333 -0.416667 -0.250000    0.00057870  96 t-inv F
[...]
   XI_TO_W:  cpu time    0.1079: real time    0.0135
   CHI_SYM:  cpu time    0.3289: real time    0.1094
        GW:  cpu time  126.6265: real time   16.3048

 performed      35397000 updates of chi_q(r,r)
 total number of BLAS operations    14993.98 Gflops


--------------------------------------------------------------------------------------------------------


NQ= 172    0.2500    0.0000    0.5000, 
       CHI:  cpu time  115.7179: real time   14.7064
   KRAMKRO:  cpu time    0.4432: real time    0.0555
    LFIELD:  cpu time    0.0002: real time    0.0000
  XI_LOCAL:  cpu time    5.1415: real time    0.6512
  XI_RED_T:  cpu time    0.2285: real time    0.0286
   XI_TO_W:  cpu time    0.1053: real time    0.0132
   CHI_SYM:  cpu time    0.3476: real time    0.1055
        GW:  cpu time  121.9949: real time   15.5710

 performed      35604000 updates of chi_q(r,r)
 total number of BLAS operations    15080.21 Gflops


--------------------------------------------------------------------------------------------------------


NQ= 173    0.3333    0.0000    0.5000, 
       CHI:  cpu time  119.1603: real time   15.3527
   KRAMKRO:  cpu time    0.4429: real time    0.0555
    LFIELD:  cpu time    0.0002: real time    0.0000
  XI_LOCAL:  cpu time    5.1475: real time    0.6467
  XI_RED_T:  cpu time    0.2328: real time    0.0291
   XI_TO_W:  cpu time    0.1105: real time    0.0138
   CHI_SYM:  cpu time    0.3438: real time    0.1098
        GW:  cpu time  125.4486: real time   16.2185

 performed      35811000 updates of chi_q(r,r)
 total number of BLAS operations    15172.61 Gflops


--------------------------------------------------------------------------------------------------------


NQ= 174    0.4167    0.0000    0.5000, 
       CHI:  cpu time  119.0709: real time   15.3083
   KRAMKRO:  cpu time    0.4445: real time    0.0556
    LFIELD:  cpu time    0.0002: real time    0.0000
  XI_LOCAL:  cpu time    5.6974: real time    0.7266
  XI_RED_T:  cpu time    0.2310: real time    0.0289
   XI_TO_W:  cpu time    0.1103: real time    0.0138
   CHI_SYM:  cpu time    0.3445: real time    0.1094
        GW:  cpu time  125.9093: real time   16.2533

 performed      36018000 updates of chi_q(r,r)
 total number of BLAS operations    15263.44 Gflops


--------------------------------------------------------------------------------------------------------


NQ= 175    0.5000    0.0000    0.5000, 
       CHI:  cpu time  119.2975: real time   15.3309
   KRAMKRO:  cpu time    0.4468: real time    0.0561
    LFIELD:  cpu time    0.0002: real time    0.0000
  XI_LOCAL:  cpu time    5.2003: real time    0.6568
  XI_RED_T:  cpu time    0.2274: real time    0.0284
   XI_TO_W:  cpu time    0.1085: real time    0.0136
   CHI_SYM:  cpu time    0.4171: real time    0.1769
        GW:  cpu time  125.7086: real time   16.2733

 performed      36225000 updates of chi_q(r,r)
 total number of BLAS operations    15352.73 Gflops


--------------------------------------------------------------------------------------------------------


NQ= 176    0.0833    0.0833    0.5000, 
       CHI:  cpu time  116.5910: real time   14.9247
   KRAMKRO:  cpu time    0.4443: real time    0.0557
    LFIELD:  cpu time    0.0002: real time    0.0000
  XI_LOCAL:  cpu time    5.2444: real time    0.6686
  XI_RED_T:  cpu time    0.2113: real time    0.0283
   XI_TO_W:  cpu time    0.1004: real time    0.0144
   CHI_SYM:  cpu time    0.3067: real time    0.1047
        GW:  cpu time  122.9088: real time   15.8070

 performed      36432000 updates of chi_q(r,r)
 total number of BLAS operations    15437.46 Gflops


--------------------------------------------------------------------------------------------------------


NQ= 177    0.1667    0.0833    0.5000, 
       CHI:  cpu time  118.0397: real time   15.0601
   KRAMKRO:  cpu time    0.4440: real time    0.0557
    LFIELD:  cpu time    0.0002: real time    0.0000
  XI_LOCAL:  cpu time    4.9059: real time    0.6164
  XI_RED_T:  cpu time    0.2126: real time    0.0286
   XI_TO_W:  cpu time    0.0959: real time    0.0135
   CHI_SYM:  cpu time    0.3031: real time    0.0759
        GW:  cpu time  124.0119: real time   15.8606

 performed      36639000 updates of chi_q(r,r)
 total number of BLAS operations    15525.21 Gflops


--------------------------------------------------------------------------------------------------------


NQ= 178    0.2500    0.0833    0.5000, 
       CHI:  cpu time  118.9247: real time   15.1275
   KRAMKRO:  cpu time    0.4604: real time    0.0582
    LFIELD:  cpu time    0.0002: real time    0.0000
  XI_LOCAL:  cpu time    5.4091: real time    0.6953
  XI_RED_T:  cpu time    0.2286: real time    0.0286
   XI_TO_W:  cpu time    0.1059: real time    0.0133
   CHI_SYM:  cpu time    0.3119: real time    0.0739
        GW:  cpu time  125.4512: real time   16.0076

 performed      36846000 updates of chi_q(r,r)
 total number of BLAS operations    15612.97 Gflops


--------------------------------------------------------------------------------------------------------


NQ= 179    0.3333    0.0833    0.5000, 
       CHI:  cpu time  118.6750: real time   15.1148
   KRAMKRO:  cpu time    0.4441: real time    0.0555
    LFIELD:  cpu time    0.0002: real time    0.0000
  XI_LOCAL:  cpu time    5.2316: real time    0.6611
  XI_RED_T:  cpu time    0.2265: real time    0.0287
   XI_TO_W:  cpu time    0.1078: real time    0.0136
   CHI_SYM:  cpu time    0.3061: real time    0.0736
        GW:  cpu time  125.0017: real time   15.9581

 performed      37053000 updates of chi_q(r,r)
 total number of BLAS operations    15702.25 Gflops


--------------------------------------------------------------------------------------------------------


NQ= 180    0.4167    0.0833    0.5000, 
       CHI:  cpu time  119.6180: real time   15.6030
   KRAMKRO:  cpu time    0.4429: real time    0.0554
    LFIELD:  cpu time    0.0002: real time    0.0000
  XI_LOCAL:  cpu time    5.0787: real time    0.6431
  XI_RED_T:  cpu time    0.2283: real time    0.0286
   XI_TO_W:  cpu time    0.1061: real time    0.0133
   CHI_SYM:  cpu time    0.3155: real time    0.0739
        GW:  cpu time  125.8001: real time   16.4278

 performed      37260000 updates of chi_q(r,r)
 total number of BLAS operations    15790.01 Gflops


--------------------------------------------------------------------------------------------------------


NQ= 181    0.5000    0.0833    0.5000, 
       CHI:  cpu time  118.2845: real time   15.1330
   KRAMKRO:  cpu time    0.4454: real time    0.0557
    LFIELD:  cpu time    0.0002: real time    0.0000
  XI_LOCAL:  cpu time    5.3513: real time    0.6785
  XI_RED_T:  cpu time    0.2278: real time    0.0286
   XI_TO_W:  cpu time    0.1085: real time    0.0136
   CHI_SYM:  cpu time    0.3461: real time    0.1070
        GW:  cpu time  124.7743: real time   16.0270

 performed      37467000 updates of chi_q(r,r)
 total number of BLAS operations    15879.30 Gflops


--------------------------------------------------------------------------------------------------------


NQ= 182    0.1667    0.1667    0.5000, 
       CHI:  cpu time  116.6803: real time   14.8683
   KRAMKRO:  cpu time    0.4432: real time    0.0554
    LFIELD:  cpu time    0.0002: real time    0.0000
  XI_LOCAL:  cpu time    5.2085: real time    0.6642
  XI_RED_T:  cpu time    0.2276: real time    0.0286
   XI_TO_W:  cpu time    0.1096: real time    0.0138
   CHI_SYM:  cpu time    0.3591: real time    0.1216
        GW:  cpu time  123.0392: real time   15.7626

 performed      37674000 updates of chi_q(r,r)
 total number of BLAS operations    15964.02 Gflops


--------------------------------------------------------------------------------------------------------


NQ= 183    0.2500    0.1667    0.5000, 
       CHI:  cpu time  118.6248: real time   15.1645
   KRAMKRO:  cpu time    0.4422: real time    0.0554
    LFIELD:  cpu time    0.0002: real time    0.0000
  XI_LOCAL:  cpu time    5.0232: real time    0.6372
  XI_RED_T:  cpu time    0.2285: real time    0.0286
   XI_TO_W:  cpu time    0.1078: real time    0.0135
   CHI_SYM:  cpu time    0.3143: real time    0.0741
        GW:  cpu time  124.7540: real time   15.9863

 performed      37881000 updates of chi_q(r,r)
 total number of BLAS operations    16053.31 Gflops


--------------------------------------------------------------------------------------------------------


NQ= 184    0.3333    0.1667    0.5000, 
       CHI:  cpu time  118.0138: real time   15.0401
   KRAMKRO:  cpu time    0.4438: real time    0.0555
    LFIELD:  cpu time    0.0002: real time    0.0000
  XI_LOCAL:  cpu time    5.5541: real time    0.7097
  XI_RED_T:  cpu time    0.2281: real time    0.0286
   XI_TO_W:  cpu time    0.1072: real time    0.0134
   CHI_SYM:  cpu time    0.3154: real time    0.0747
        GW:  cpu time  124.6730: real time   15.9328

 performed      38088000 updates of chi_q(r,r)
 total number of BLAS operations    16142.60 Gflops


--------------------------------------------------------------------------------------------------------


NQ= 185    0.4167    0.1667    0.5000, 
       CHI:  cpu time  117.4416: real time   14.9199
   KRAMKRO:  cpu time    0.4454: real time    0.0557
    LFIELD:  cpu time    0.0002: real time    0.0000
  XI_LOCAL:  cpu time    5.2215: real time    0.6626
  XI_RED_T:  cpu time    0.2304: real time    0.0288
   XI_TO_W:  cpu time    0.1081: real time    0.0135
   CHI_SYM:  cpu time    0.3122: real time    0.0739
        GW:  cpu time  123.7700: real time   15.7651

 performed      38295000 updates of chi_q(r,r)
 total number of BLAS operations    16231.89 Gflops


--------------------------------------------------------------------------------------------------------


NQ= 186    0.5000    0.1667    0.5000, 
       CHI:  cpu time  117.8545: real time   15.1412
   KRAMKRO:  cpu time    0.4432: real time    0.0554
    LFIELD:  cpu time    0.0002: real time    0.0000
  XI_LOCAL:  cpu time    5.1564: real time    0.6470
  XI_RED_T:  cpu time    0.2330: real time    0.0292
   XI_TO_W:  cpu time    0.1114: real time    0.0139
   CHI_SYM:  cpu time    0.3442: real time    0.1111
        GW:  cpu time  124.1534: real time   16.0084

 performed      38502000 updates of chi_q(r,r)
 total number of BLAS operations    16324.28 Gflops


--------------------------------------------------------------------------------------------------------


NQ= 187    0.2500    0.2500    0.5000, 
       CHI:  cpu time  117.9521: real time   14.9808
   KRAMKRO:  cpu time    0.4833: real time    0.0615
    LFIELD:  cpu time    0.0002: real time    0.0000
  XI_LOCAL:  cpu time    4.9639: real time    0.6223
  XI_RED_T:  cpu time    0.2308: real time    0.0289
   XI_TO_W:  cpu time    0.1095: real time    0.0137
   CHI_SYM:  cpu time    0.3449: real time    0.1092
        GW:  cpu time  124.0952: real time   15.8269

 performed      38709000 updates of chi_q(r,r)
 total number of BLAS operations    16415.11 Gflops


--------------------------------------------------------------------------------------------------------


NQ= 188    0.3333    0.2500    0.5000, 
       CHI:  cpu time  118.4554: real time   15.1264
   KRAMKRO:  cpu time    0.4484: real time    0.0567
    LFIELD:  cpu time    0.0002: real time    0.0000
  XI_LOCAL:  cpu time    5.1597: real time    0.6534
  XI_RED_T:  cpu time    0.2265: real time    0.0283
   XI_TO_W:  cpu time    0.1058: real time    0.0132
   CHI_SYM:  cpu time    0.3176: real time    0.0737
        GW:  cpu time  124.7240: real time   15.9625

 performed      38916000 updates of chi_q(r,r)
 total number of BLAS operations    16502.87 Gflops


--------------------------------------------------------------------------------------------------------


NQ= 189    0.4167    0.2500    0.5000, 
       CHI:  cpu time  118.3859: real time   15.0883
   KRAMKRO:  cpu time    0.4434: real time    0.0554
    LFIELD:  cpu time    0.0002: real time    0.0000
  XI_LOCAL:  cpu time    5.2038: real time    0.6586
  XI_RED_T:  cpu time    0.2142: real time    0.0287
   XI_TO_W:  cpu time    0.0941: real time    0.0133
   CHI_SYM:  cpu time    0.2986: real time    0.0740
        GW:  cpu time  124.6506: real time   15.9292

 performed      39123000 updates of chi_q(r,r)
 total number of BLAS operations    16590.62 Gflops


--------------------------------------------------------------------------------------------------------


NQ= 190    0.5000    0.2500    0.5000, 
       CHI:  cpu time  118.1399: real time   15.0371
   KRAMKRO:  cpu time    0.4444: real time    0.0557
    LFIELD:  cpu time    0.0002: real time    0.0000
  XI_LOCAL:  cpu time    4.8794: real time    0.6137
  XI_RED_T:  cpu time    0.2305: real time    0.0289
   XI_TO_W:  cpu time    0.1047: real time    0.0131
   CHI_SYM:  cpu time    0.3446: real time    0.1049
        GW:  cpu time  124.1540: real time   15.8639

 performed      39330000 updates of chi_q(r,r)
 total number of BLAS operations    16676.86 Gflops


--------------------------------------------------------------------------------------------------------


NQ= 191    0.3333    0.3333    0.5000, 
       CHI:  cpu time  118.4035: real time   15.1642
   KRAMKRO:  cpu time    0.5526: real time    0.0834
    LFIELD:  cpu time    0.0002: real time    0.0000
  XI_LOCAL:  cpu time    5.2695: real time    0.6868
  XI_RED_T:  cpu time    0.2235: real time    0.0280
   XI_TO_W:  cpu time    0.1066: real time    0.0134
   CHI_SYM:  cpu time    0.3491: real time    0.1045
        GW:  cpu time  124.9157: real time   16.0908

 performed      39537000 updates of chi_q(r,r)
 total number of BLAS operations    16758.61 Gflops


--------------------------------------------------------------------------------------------------------


NQ= 192    0.4167    0.3333    0.5000, 
       CHI:  cpu time  116.6237: real time   14.8389
   KRAMKRO:  cpu time    0.4439: real time    0.0555
    LFIELD:  cpu time    0.0002: real time    0.0000
  XI_LOCAL:  cpu time    4.5948: real time    0.5771
  XI_RED_T:  cpu time    0.2251: real time    0.0281
   XI_TO_W:  cpu time    0.1093: real time    0.0137
   CHI_SYM:  cpu time    0.2900: real time    0.0731
        GW:  cpu time  122.2976: real time   15.5971

 performed      39744000 updates of chi_q(r,r)
 total number of BLAS operations    16841.85 Gflops


--------------------------------------------------------------------------------------------------------


NQ= 193    0.5000    0.3333    0.5000, 
       CHI:  cpu time  117.7387: real time   14.9936
   KRAMKRO:  cpu time    0.4431: real time    0.0554
    LFIELD:  cpu time    0.0002: real time    0.0000
  XI_LOCAL:  cpu time    4.9210: real time    0.6239
  XI_RED_T:  cpu time    0.2241: real time    0.0280
   XI_TO_W:  cpu time    0.1638: real time    0.0218
   CHI_SYM:  cpu time    0.2852: real time    0.1001
        GW:  cpu time  123.7865: real time   15.8333

 performed      39951000 updates of chi_q(r,r)
 total number of BLAS operations    16925.09 Gflops


--------------------------------------------------------------------------------------------------------


NQ= 194    0.4167    0.4167    0.5000, 
       CHI:  cpu time  116.4850: real time   14.8468
   KRAMKRO:  cpu time    0.4959: real time    0.0637
    LFIELD:  cpu time    0.0002: real time    0.0000
  XI_LOCAL:  cpu time    4.7038: real time    0.5949
  XI_RED_T:  cpu time    0.2218: real time    0.0278
   XI_TO_W:  cpu time    0.1015: real time    0.0127
   CHI_SYM:  cpu time    0.3579: real time    0.1065
        GW:  cpu time  122.3766: real time   15.6633

 performed      40158000 updates of chi_q(r,r)
 total number of BLAS operations    17005.38 Gflops


--------------------------------------------------------------------------------------------------------


NQ= 195    0.5000    0.4167    0.5000, 
       CHI:  cpu time  113.7138: real time   14.7627
   KRAMKRO:  cpu time    0.4433: real time    0.0555
    LFIELD:  cpu time    0.0002: real time    0.0000
  XI_LOCAL:  cpu time    4.9987: real time    0.6361
  XI_RED_T:  cpu time    0.2236: real time    0.0280
   XI_TO_W:  cpu time    0.1089: real time    0.0136
   CHI_SYM:  cpu time    0.3464: real time    0.1027
        GW:  cpu time  119.8453: real time   15.6094

 performed      40365000 updates of chi_q(r,r)
 total number of BLAS operations    17088.61 Gflops


--------------------------------------------------------------------------------------------------------


NQ= 196    0.5000    0.5000    0.5000, 
       CHI:  cpu time  115.3388: real time   14.6562
   KRAMKRO:  cpu time    0.4429: real time    0.0554
    LFIELD:  cpu time    0.0002: real time    0.0000
  XI_LOCAL:  cpu time    3.9856: real time    0.5070
  XI_RED_T:  cpu time    0.1876: real time    0.0257
   XI_TO_W:  cpu time    0.0844: real time    0.0119
   CHI_SYM:  cpu time    0.5049: real time    0.2538
        GW:  cpu time  120.5548: real time   15.5207

 performed      40572000 updates of chi_q(r,r)
 total number of BLAS operations    17154.97 Gflops
    GWLOOP:  cpu time24568.1608: real time 3159.8280
  LATTYP: Found a simple tetragonal cell.
 ALAT       =     3.3809420000
 C/A-ratio  =     1.2187550097
  
  Lattice vectors:
  
 A1 = (   3.3809420000,   0.0000000000,   0.0000000000)
 A2 = (   0.0000000000,   3.3809420000,   0.0000000000)
 A3 = (   0.0000000000,   0.0000000000,   4.1205400000)


Analysis of symmetry for initial positions (statically):
=====================================================================
 Subroutine PRICEL returns following result:
 
  LATTYP: Found a body centered tetragonal cell.
 ALAT       =     3.3809420000
 C/A-ratio  =     1.2187550097
  
  Lattice vectors:
  
 A1 = (  -1.6904710000,  -1.6904710000,   2.0602700000)
 A2 = (   1.6904710000,   1.6904710000,   2.0602700000)
 A3 = (  -1.6904710000,   1.6904710000,  -2.0602700000)
 
   2 primitive cells build up your supercell.
 

 Routine SETGRP: Setting up the symmetry group for a 
 simple tetragonal supercell.


 Subroutine GETGRP returns: Found 16 space group operations
 (whereof 16 operations were pure point group operations)
 out of a pool of 16 trial point group operations.


The static configuration has the point symmetry D_4h.


Analysis of symmetry for dynamics (positions and initial velocities):
=====================================================================
 Subroutine PRICEL returns following result:
 
  LATTYP: Found a body centered tetragonal cell.
 ALAT       =     3.3809420000
 C/A-ratio  =     1.2187550097
  
  Lattice vectors:
  
 A1 = (  -1.6904710000,  -1.6904710000,   2.0602700000)
 A2 = (   1.6904710000,   1.6904710000,   2.0602700000)
 A3 = (  -1.6904710000,   1.6904710000,  -2.0602700000)
 
   2 primitive cells build up your supercell.
 

 Routine SETGRP: Setting up the symmetry group for a 
 simple tetragonal supercell.


 Subroutine GETGRP returns: Found 16 space group operations
 (whereof 16 operations were pure point group operations)
 out of a pool of 16 trial point group operations.


The dynamic configuration has the point symmetry D_4h.


 Subroutine INISYM returns: Found 16 space group operations
 (whereof 16 operations are pure point group operations),
 and found     2 'primitive' translations

  
  
 General timing and accounting informations for this job:
 ========================================================
  
                  Total CPU time used (sec):    24570.176
                            User time (sec):     8632.853
                          System time (sec):    15937.322
                         Elapsed time (sec):     3160.983
  
                   Maximum memory used (kb):      829924.
                   Average memory used (kb):           0.
  
                          Minor page faults:       231576
                          Major page faults:           26
                 Voluntary context switches:         2657
