H atom ! description                    
   1.0000000000000000     
     5.000000    0.000000    0.000000
     0.000000    5.000000    0.000000
     0.000000    0.000000    5.000000
   H 
     2
Direct
  0.000000  0.000000  0.000000
  0.200000  0.000000  0.000000

   48   48   48
  180.22      182.98      167.76      147.53      133.85      130.77      138.09      155.34      175.25      184.57    
  172.65      140.29      99.431      63.765      39.556      24.732      15.546      9.9872      6.5785      4.3574    
  2.8360      1.8334      1.2219     0.83159     0.55126     0.37259     0.28536     0.22651     0.16614     0.14619    
 0.18866     0.25051     0.31280     0.43107     0.65215     0.97104      1.4303      2.1791      3.3760      5.1441    
  7.7570      11.881      18.685      29.841      47.865      76.785      115.82      155.09      167.13      170.27    
  157.06      139.20      127.12      124.42      130.87      146.11      163.62      171.45      160.02      130.13    
  92.676      60.034      37.724      23.790      15.061      9.7313      6.4320      4.2678      2.7823      1.8023    
  1.2025     0.81914     0.54486     0.36929     0.28164     0.22283     0.16471     0.14575     0.18622     0.24651    
 0.30946     0.42705     0.64350     0.95596      1.4071      2.1405      3.3096      5.0353      7.5759      11.553    
  18.052      28.621      45.418      71.957      107.68      143.75      134.38      138.33      130.00      117.89    
  109.58      107.69      112.17      122.61      134.32      138.57      128.45      104.80      75.851      50.657    
  32.957      21.259      13.736      9.0192      6.0177      4.0121      2.6283      1.7126      1.1466     0.78349    
 0.52608     0.35926     0.27095     0.21254     0.16048     0.14416     0.17931     0.23525     0.29961     0.41490    
 0.61849     0.91280      1.3405      2.0294      3.1197      4.7257      7.0668      10.647      16.335      25.359    
  39.167      59.892      87.411      115.46      96.354      100.90      97.738      91.693      87.129      85.945    
  88.609      94.124      99.653      100.20      91.906      75.596      56.364      39.461      26.783      17.850    
  11.892      7.9900      5.4009      3.6257      2.3935      1.5749      1.0613     0.72914     0.49616     0.34232    
 0.25446     0.19749     0.15363     0.14077     0.16890     0.21867     0.28373     0.39462     0.57965     0.84714    
  1.2382      1.8591      2.8312      4.2600      6.3164      9.3569      13.979      21.015      31.373      45.732    
  64.018      82.813      64.891      69.310      69.484      67.410      65.216      64.588      65.981      68.364    
  69.815      68.121      61.791      51.531      39.888      29.230      20.637      14.316      9.8798      6.8064    
  4.6647      3.1571      2.1060      1.4046     0.95616     0.66213     0.45710     0.31867     0.23377     0.17989    
 0.14449     0.13502     0.15622     0.19905     0.26266     0.36665     0.53053     0.76653      1.1118      1.6491    
  2.4792      3.6977      5.4316      7.9028      11.462      16.589      23.794      33.285      44.530      55.964    
  43.143      46.761      48.075      47.798      47.073      46.839      47.345      48.029      47.797      45.603    
  41.057      34.678      27.599      20.959      15.428      11.148      7.9542      5.6032      3.8888      2.6569    
  1.7965      1.2191     0.84135     0.58842     0.41142     0.28928     0.21047     0.16152     0.13355     0.12676    
 0.14235     0.17831     0.23764     0.33227     0.47491     0.67848     0.97366      1.4214      2.1020      3.0996    
  4.5091      6.4569      9.1173      12.717      17.488      23.506      30.435      37.384      28.551      31.247    
  32.775      33.354      33.438      33.428      33.434      33.209      32.298      30.308      27.170      23.196    
  18.931      14.892      11.391      8.5198      6.2385      4.4699      3.1378      2.1698      1.4930      1.0342    
 0.72554     0.51275     0.36178     0.25592     0.18595     0.14341     0.12134     0.11640     0.12801     0.15765    
 0.21017     0.29349     0.41610     0.58901     0.83488      1.1961      1.7335      2.5180      3.6229      5.1208    
  7.0850      9.5937      12.717      16.455      20.636      24.853      19.072      20.996      22.365      23.191    
  23.586      23.668      23.471      22.920      21.886      20.289      18.171      15.701      13.115      10.622    
  8.3625      6.4037      4.7694      3.4605      2.4595      1.7292      1.2160     0.86161     0.61462     0.43824    
 0.31075     0.22081     0.16137     0.12596     0.10847     0.10471     0.11364     0.13765     0.18190     0.25277    
 0.35677     0.50201     0.70324     0.98789      1.3990      1.9920      2.8249      3.9457      5.3837      7.1489    
  9.2327      11.597      14.149      16.717      12.974      14.288      15.335      16.070      16.483      16.578    
  16.356      15.815      14.952      13.791      12.389      10.829      9.2032      7.5965      6.0815      4.7179    
  3.5515      2.6074      1.8840      1.3544     0.97671     0.70736     0.51159     0.36686     0.26075     0.18626    
 0.13775     0.10931     0.95459E-01 0.92504E-01 0.99542E-01 0.11866     0.15441     0.21262     0.29907     0.41960    
 0.58278     0.80459      1.1125      1.5455      2.1481      2.9578      3.9922      5.2418      6.6724      8.2319    
  9.8558      11.466      8.9271      9.7869      10.496      11.020      11.327      11.400      11.232      10.835    
  10.233      9.4590      8.5494      7.5411      6.4732      5.3910      4.3473      3.3962      2.5817      1.9253    
  1.4230      1.0508     0.77693     0.57263     0.41763     0.30019     0.21394     0.15423     0.11596     0.93667E-01
 0.82732E-01 0.80379E-01 0.85968E-01 0.10100     0.12905     0.17524     0.24500     0.34314     0.47463     0.64751    
 0.87667      1.1861      1.6067      2.1686      2.8891      3.7623      4.7566      5.8224      6.9048      7.9538    
  6.1128      6.6574      7.0996      7.4238      7.6141      7.6589      7.5550      7.3093      6.9360      6.4510    
  5.8697      5.2087      4.4917      3.7542      3.0408      2.3951      1.8478      1.4091      1.0704     0.81185    
 0.61236     0.45597     0.33342     0.23996     0.17221     0.12608     0.96660E-01 0.79300E-01 0.70585E-01 0.68681E-01
 0.73186E-01 0.85050E-01 0.10674     0.14224     0.19646     0.27407     0.37874     0.51408     0.68624     0.90707    
  1.1951      1.5718      2.0538      2.6428      3.3203      4.0489      4.7832      5.4814      4.1217      4.4660    
  4.7357      4.9269      5.0364      5.0618      5.0025      4.8600      4.6371      4.3369      3.9645      3.5299    
  3.0528      2.5628      2.0935      1.6740      1.3205      1.0346     0.80704     0.62469     0.47635     0.35562    
 0.25997     0.18793     0.13683     0.10243     0.80141E-01 0.66426E-01 0.59212E-01 0.57594E-01 0.61396E-01 0.71047E-01
 0.87861E-01 0.11449     0.15500     0.21404     0.29530     0.40082     0.53213     0.69302     0.89189      1.1412    
  1.4535      1.8344      2.2766      2.7582      3.2471      3.7102      2.7649      2.9913      3.1648      3.2844    
  3.3513      3.3666      3.3308      3.2430      3.1019      2.9069      2.6608      2.3729      2.0598      1.7433    
  1.4448      1.1797     0.95431     0.76626     0.60897     0.47591     0.36345     0.27089     0.19848     0.14527    
 0.10825     0.83184E-01 0.66239E-01 0.55052E-01 0.48759E-01 0.47296E-01 0.50701E-01 0.58918E-01 0.72232E-01 0.92047E-01
 0.12138     0.16440     0.22504     0.30550     0.40605     0.52654     0.66866     0.83738      1.0397      1.2811    
  1.5608      1.8688      2.1867      2.4921      1.8833      2.0401      2.1611      2.2444      2.2906      2.3012    
  2.2765      2.2156      2.1172      1.9814      1.8119      1.6174      1.4110      1.2068      1.0166     0.84691    
 0.69872     0.56937     0.45558     0.35584     0.27082     0.20195     0.14959     0.11204     0.85955E-01 0.67679E-01
 0.54451E-01 0.45012E-01 0.39374E-01 0.38025E-01 0.41142E-01 0.48353E-01 0.59252E-01 0.74260E-01 0.95255E-01 0.12547    
 0.16862     0.22750     0.30297     0.39405     0.49938     0.61908     0.75554     0.91214      1.0904      1.2873    
  1.4941      1.6974      1.2964      1.4069      1.4950      1.5573      1.5925      1.6006      1.5816      1.5356    
  1.4628      1.3651      1.2473      1.1164     0.98113     0.84937     0.72636     0.61402     0.51180     0.41851    
 0.33400     0.25966     0.19751     0.14875     0.11272     0.87052E-01 0.68681E-01 0.54927E-01 0.44208E-01 0.36156E-01
 0.31226E-01 0.30038E-01 0.32779E-01 0.39039E-01 0.48179E-01 0.60004E-01 0.75346E-01 0.96268E-01 0.12572     0.16665    
 0.22079     0.28804     0.36669     0.45480     0.55156     0.65768     0.77432     0.90125      1.0352      1.1698    
 0.87986     0.95515      1.0183      1.0650      1.0923      1.0987      1.0838      1.0485     0.99478     0.92622    
 0.84744     0.76347     0.67872     0.59611     0.51685     0.44100     0.36856     0.30043     0.23864     0.18551    
 0.14259     0.10990     0.85918E-01 0.68330E-01 0.54868E-01 0.44002E-01 0.35154E-01 0.28487E-01 0.24477E-01 0.23523E-01
 0.25731E-01 0.30863E-01 0.38452E-01 0.48094E-01 0.59877E-01 0.74755E-01 0.94604E-01 0.12182     0.15849     0.20559    
 0.26244     0.32705     0.39710     0.47095     0.54814     0.62878     0.71249     0.79738     0.59407     0.64233    
 0.68412     0.71601     0.73512     0.73965     0.72916     0.70465     0.66840     0.62361     0.57368     0.52149    
 0.46877     0.41607     0.36329     0.31054     0.25888     0.21037     0.16741     0.13174     0.10376     0.82567E-01
 0.66476E-01 0.53767E-01 0.43233E-01 0.34375E-01 0.27253E-01 0.22135E-01 0.19213E-01 0.18539E-01 0.20113E-01 0.23926E-01
 0.29877E-01 0.37722E-01 0.47233E-01 0.58538E-01 0.72418E-01 0.90330E-01 0.11406     0.14507     0.18380     0.22924    
 0.27930     0.33159     0.38442     0.43715     0.48986     0.54250     0.41462     0.44397     0.46825     0.48616    
 0.49666     0.49912     0.49340     0.47983     0.45924     0.43277     0.40175     0.36746     0.33089     0.29280    
 0.25398     0.21551     0.17894     0.14594     0.11783     0.95102E-01 0.77293E-01 0.63261E-01 0.51722E-01 0.41777E-01
 0.33144E-01 0.26015E-01 0.20673E-01 0.17185E-01 0.15365E-01 0.14965E-01 0.15910E-01 0.18365E-01 0.22584E-01 0.28666E-01
 0.36434E-01 0.45595E-01 0.56110E-01 0.68507E-01 0.83890E-01 0.10356     0.12843     0.15861     0.19323     0.23077    
 0.26954     0.30817     0.34574     0.38150     0.29126     0.30894     0.32211     0.33092     0.33571     0.33679    
 0.33425     0.32790     0.31738     0.30241     0.28296     0.25950     0.23297     0.20469     0.17620     0.14900    
 0.12434     0.10302     0.85304E-01 0.70879E-01 0.59025E-01 0.48883E-01 0.39806E-01 0.31622E-01 0.24607E-01 0.19189E-01
 0.15568E-01 0.13544E-01 0.12655E-01 0.12481E-01 0.12906E-01 0.14189E-01 0.16805E-01 0.21143E-01 0.27243E-01 0.34778E-01
 0.43332E-01 0.52785E-01 0.63514E-01 0.76294E-01 0.91968E-01 0.11112     0.13383     0.15964     0.18753     0.21612    
 0.24387     0.26932     0.19219     0.20360     0.21232     0.21830     0.22163     0.22238     0.22061     0.21624    
 0.20916     0.19935     0.18692     0.17219     0.15572     0.13829     0.12077     0.10405     0.88832E-01 0.75511E-01
 0.64110E-01 0.54293E-01 0.45550E-01 0.37470E-01 0.29968E-01 0.23309E-01 0.17922E-01 0.14124E-01 0.11913E-01 0.10936E-01
 0.10655E-01 0.10623E-01 0.10718E-01 0.11212E-01 0.12623E-01 0.15445E-01 0.19898E-01 0.25845E-01 0.32889E-01 0.40636E-01
 0.48950E-01 0.58062E-01 0.68455E-01 0.80602E-01 0.94707E-01 0.11060     0.12773     0.14532     0.16247     0.17832    
 0.12858     0.13704     0.14423     0.14963     0.15283     0.15358     0.15183     0.14771     0.14154     0.13378    
 0.12494     0.11543     0.10556     0.95487E-01 0.85396E-01 0.75505E-01 0.66081E-01 0.57337E-01 0.49320E-01 0.41893E-01
 0.34881E-01 0.28255E-01 0.22223E-01 0.17136E-01 0.13294E-01 0.10794E-01 0.94846E-02 0.90123E-02 0.89484E-02 0.89575E-02
 0.89507E-02 0.91283E-02 0.98849E-02 0.11638E-01 0.14670E-01 0.19035E-01 0.24543E-01 0.30851E-01 0.37643E-01 0.44806E-01
 0.52445E-01 0.60746E-01 0.69778E-01 0.79421E-01 0.89423E-01 0.99527E-01 0.10954     0.11929     0.10482     0.11168    
 0.11692     0.12046     0.12240     0.12283     0.12181     0.11924     0.11503     0.10912     0.10168     0.93091E-01
 0.83929E-01 0.74776E-01 0.66100E-01 0.58148E-01 0.50932E-01 0.44295E-01 0.38034E-01 0.32042E-01 0.26370E-01 0.21196E-01
 0.16744E-01 0.13187E-01 0.10597E-01 0.89122E-02 0.79568E-02 0.74958E-02 0.73159E-02 0.72828E-02 0.73649E-02 0.76359E-02
 0.82662E-02 0.94865E-02 0.11518E-01 0.14495E-01 0.18425E-01 0.23191E-01 0.28591E-01 0.34407E-01 0.40504E-01 0.46894E-01
 0.53738E-01 0.61236E-01 0.69492E-01 0.78402E-01 0.87624E-01 0.96629E-01 0.89264E-01 0.94502E-01 0.97830E-01 0.99604E-01
 0.10035     0.10050     0.10014     0.99047E-01 0.96712E-01 0.92643E-01 0.86633E-01 0.78945E-01 0.70281E-01 0.61524E-01
 0.53415E-01 0.46304E-01 0.40125E-01 0.34572E-01 0.29378E-01 0.24501E-01 0.20105E-01 0.16380E-01 0.13401E-01 0.11109E-01
 0.93699E-02 0.80478E-02 0.70345E-02 0.62833E-02 0.58215E-02 0.57093E-02 0.59675E-02 0.65521E-02 0.74075E-02 0.85345E-02
 0.10008E-01 0.11951E-01 0.14505E-01 0.17781E-01 0.21792E-01 0.26406E-01 0.31421E-01 0.36739E-01 0.42503E-01 0.49025E-01
 0.56548E-01 0.64984E-01 0.73807E-01 0.82184E-01 0.61469E-01 0.65017E-01 0.67871E-01 0.69908E-01 0.71069E-01 0.71337E-01
 0.70711E-01 0.69196E-01 0.66822E-01 0.63672E-01 0.59895E-01 0.55691E-01 0.51257E-01 0.46733E-01 0.42169E-01 0.37550E-01
 0.32866E-01 0.28192E-01 0.23712E-01 0.19675E-01 0.16300E-01 0.13680E-01 0.11738E-01 0.10260E-01 0.89928E-02 0.77575E-02
 0.65318E-02 0.54514E-02 0.47321E-02 0.45532E-02 0.49629E-02 0.58528E-02 0.70152E-02 0.82531E-02 0.94887E-02 0.10812E-01
 0.12445E-01 0.14638E-01 0.17561E-01 0.21220E-01 0.25465E-01 0.30051E-01 0.34745E-01 0.39406E-01 0.43999E-01 0.48548E-01
 0.53047E-01 0.57411E-01 0.45066E-01 0.47848E-01 0.50880E-01 0.53583E-01 0.55357E-01 0.55793E-01 0.54791E-01 0.52582E-01
 0.49671E-01 0.46678E-01 0.44111E-01 0.42164E-01 0.40649E-01 0.39094E-01 0.36983E-01 0.34001E-01 0.30192E-01 0.25927E-01
 0.21719E-01 0.18007E-01 0.15032E-01 0.12826E-01 0.11253E-01 0.10055E-01 0.89362E-02 0.77034E-02 0.63701E-02 0.51497E-02
 0.43297E-02 0.41258E-02 0.45929E-02 0.56057E-02 0.69052E-02 0.82146E-02 0.93903E-02 0.10509E-01 0.11821E-01 0.13622E-01
 0.16127E-01 0.19412E-01 0.23363E-01 0.27655E-01 0.31797E-01 0.35304E-01 0.37921E-01 0.39756E-01 0.41229E-01 0.42872E-01
 0.61469E-01 0.65017E-01 0.67871E-01 0.69908E-01 0.71069E-01 0.71337E-01 0.70711E-01 0.69196E-01 0.66822E-01 0.63672E-01
 0.59895E-01 0.55691E-01 0.51257E-01 0.46733E-01 0.42169E-01 0.37550E-01 0.32866E-01 0.28192E-01 0.23712E-01 0.19675E-01
 0.16300E-01 0.13680E-01 0.11738E-01 0.10260E-01 0.89928E-02 0.77575E-02 0.65318E-02 0.54514E-02 0.47321E-02 0.45532E-02
 0.49629E-02 0.58528E-02 0.70152E-02 0.82531E-02 0.94887E-02 0.10812E-01 0.12445E-01 0.14638E-01 0.17561E-01 0.21220E-01
 0.25465E-01 0.30051E-01 0.34745E-01 0.39406E-01 0.43999E-01 0.48548E-01 0.53047E-01 0.57411E-01 0.89264E-01 0.94502E-01
 0.97830E-01 0.99604E-01 0.10035     0.10050     0.10014     0.99047E-01 0.96712E-01 0.92643E-01 0.86633E-01 0.78945E-01
 0.70281E-01 0.61524E-01 0.53415E-01 0.46304E-01 0.40125E-01 0.34572E-01 0.29378E-01 0.24501E-01 0.20105E-01 0.16380E-01
 0.13401E-01 0.11109E-01 0.93699E-02 0.80478E-02 0.70345E-02 0.62833E-02 0.58215E-02 0.57093E-02 0.59675E-02 0.65521E-02
 0.74075E-02 0.85345E-02 0.10008E-01 0.11951E-01 0.14505E-01 0.17781E-01 0.21792E-01 0.26406E-01 0.31421E-01 0.36739E-01
 0.42503E-01 0.49025E-01 0.56548E-01 0.64984E-01 0.73807E-01 0.82184E-01 0.10482     0.11168     0.11692     0.12046    
 0.12240     0.12283     0.12181     0.11924     0.11503     0.10912     0.10168     0.93091E-01 0.83929E-01 0.74776E-01
 0.66100E-01 0.58148E-01 0.50932E-01 0.44295E-01 0.38034E-01 0.32042E-01 0.26370E-01 0.21196E-01 0.16744E-01 0.13187E-01
 0.10597E-01 0.89122E-02 0.79568E-02 0.74958E-02 0.73159E-02 0.72828E-02 0.73649E-02 0.76359E-02 0.82662E-02 0.94865E-02
 0.11518E-01 0.14495E-01 0.18425E-01 0.23191E-01 0.28591E-01 0.34407E-01 0.40504E-01 0.46894E-01 0.53738E-01 0.61236E-01
 0.69492E-01 0.78402E-01 0.87624E-01 0.96629E-01 0.12858     0.13704     0.14423     0.14963     0.15283     0.15358    
 0.15183     0.14771     0.14154     0.13378     0.12494     0.11543     0.10556     0.95487E-01 0.85396E-01 0.75505E-01
 0.66081E-01 0.57337E-01 0.49320E-01 0.41893E-01 0.34881E-01 0.28255E-01 0.22223E-01 0.17136E-01 0.13294E-01 0.10794E-01
 0.94846E-02 0.90123E-02 0.89484E-02 0.89575E-02 0.89507E-02 0.91283E-02 0.98849E-02 0.11638E-01 0.14670E-01 0.19035E-01
 0.24543E-01 0.30851E-01 0.37643E-01 0.44806E-01 0.52445E-01 0.60746E-01 0.69778E-01 0.79421E-01 0.89423E-01 0.99527E-01
 0.10954     0.11929     0.19219     0.20360     0.21232     0.21830     0.22163     0.22238     0.22061     0.21624    
 0.20916     0.19935     0.18692     0.17219     0.15572     0.13829     0.12077     0.10405     0.88832E-01 0.75511E-01
 0.64110E-01 0.54293E-01 0.45550E-01 0.37470E-01 0.29968E-01 0.23309E-01 0.17922E-01 0.14124E-01 0.11913E-01 0.10936E-01
 0.10655E-01 0.10623E-01 0.10718E-01 0.11212E-01 0.12623E-01 0.15445E-01 0.19898E-01 0.25845E-01 0.32889E-01 0.40636E-01
 0.48950E-01 0.58062E-01 0.68455E-01 0.80602E-01 0.94707E-01 0.11060     0.12773     0.14532     0.16247     0.17832    
 0.29126     0.30894     0.32211     0.33092     0.33571     0.33679     0.33425     0.32790     0.31738     0.30241    
 0.28296     0.25950     0.23297     0.20469     0.17620     0.14900     0.12434     0.10302     0.85304E-01 0.70879E-01
 0.59025E-01 0.48883E-01 0.39806E-01 0.31622E-01 0.24607E-01 0.19189E-01 0.15568E-01 0.13544E-01 0.12655E-01 0.12481E-01
 0.12906E-01 0.14189E-01 0.16805E-01 0.21143E-01 0.27243E-01 0.34778E-01 0.43332E-01 0.52785E-01 0.63514E-01 0.76294E-01
 0.91968E-01 0.11112     0.13383     0.15964     0.18753     0.21612     0.24387     0.26932     0.41462     0.44397    
 0.46825     0.48616     0.49666     0.49912     0.49340     0.47983     0.45924     0.43277     0.40175     0.36746    
 0.33089     0.29280     0.25398     0.21551     0.17894     0.14594     0.11783     0.95102E-01 0.77293E-01 0.63261E-01
 0.51722E-01 0.41777E-01 0.33144E-01 0.26015E-01 0.20673E-01 0.17185E-01 0.15365E-01 0.14965E-01 0.15910E-01 0.18365E-01
 0.22584E-01 0.28666E-01 0.36434E-01 0.45595E-01 0.56110E-01 0.68507E-01 0.83890E-01 0.10356     0.12843     0.15861    
 0.19323     0.23077     0.26954     0.30817     0.34574     0.38150     0.59407     0.64233     0.68412     0.71601    
 0.73512     0.73965     0.72916     0.70465     0.66840     0.62361     0.57368     0.52149     0.46877     0.41607    
 0.36329     0.31054     0.25888     0.21037     0.16741     0.13174     0.10376     0.82567E-01 0.66476E-01 0.53767E-01
 0.43233E-01 0.34375E-01 0.27253E-01 0.22135E-01 0.19213E-01 0.18539E-01 0.20113E-01 0.23926E-01 0.29877E-01 0.37722E-01
 0.47233E-01 0.58538E-01 0.72418E-01 0.90330E-01 0.11406     0.14507     0.18380     0.22924     0.27930     0.33159    
 0.38442     0.43715     0.48986     0.54250     0.87986     0.95515      1.0183      1.0650      1.0923      1.0987    
  1.0838      1.0485     0.99478     0.92622     0.84744     0.76347     0.67872     0.59611     0.51685     0.44100    
 0.36856     0.30043     0.23864     0.18551     0.14259     0.10990     0.85918E-01 0.68330E-01 0.54868E-01 0.44002E-01
 0.35154E-01 0.28487E-01 0.24477E-01 0.23523E-01 0.25731E-01 0.30863E-01 0.38452E-01 0.48094E-01 0.59877E-01 0.74755E-01
 0.94604E-01 0.12182     0.15849     0.20559     0.26244     0.32705     0.39710     0.47095     0.54814     0.62878    
 0.71249     0.79738      1.2964      1.4069      1.4950      1.5573      1.5925      1.6006      1.5816      1.5356    
  1.4628      1.3651      1.2473      1.1164     0.98113     0.84937     0.72636     0.61402     0.51180     0.41851    
 0.33400     0.25966     0.19751     0.14875     0.11272     0.87052E-01 0.68681E-01 0.54927E-01 0.44208E-01 0.36156E-01
 0.31226E-01 0.30038E-01 0.32779E-01 0.39039E-01 0.48179E-01 0.60004E-01 0.75346E-01 0.96268E-01 0.12572     0.16665    
 0.22079     0.28804     0.36669     0.45480     0.55156     0.65768     0.77432     0.90125      1.0352      1.1698    
  1.8833      2.0401      2.1611      2.2444      2.2906      2.3012      2.2765      2.2156      2.1172      1.9814    
  1.8119      1.6174      1.4110      1.2068      1.0166     0.84691     0.69872     0.56937     0.45558     0.35584    
 0.27082     0.20195     0.14959     0.11204     0.85955E-01 0.67679E-01 0.54451E-01 0.45012E-01 0.39374E-01 0.38025E-01
 0.41142E-01 0.48353E-01 0.59252E-01 0.74260E-01 0.95255E-01 0.12547     0.16862     0.22750     0.30297     0.39405    
 0.49938     0.61908     0.75554     0.91214      1.0904      1.2873      1.4941      1.6974      2.7649      2.9913    
  3.1648      3.2844      3.3513      3.3666      3.3308      3.2430      3.1019      2.9069      2.6608      2.3729    
  2.0598      1.7433      1.4448      1.1797     0.95431     0.76626     0.60897     0.47591     0.36345     0.27089    
 0.19848     0.14527     0.10825     0.83184E-01 0.66239E-01 0.55052E-01 0.48759E-01 0.47296E-01 0.50701E-01 0.58918E-01
 0.72232E-01 0.92047E-01 0.12138     0.16440     0.22504     0.30550     0.40605     0.52654     0.66866     0.83738    
  1.0397      1.2811      1.5608      1.8688      2.1867      2.4921      4.1217      4.4660      4.7357      4.9269    
  5.0364      5.0618      5.0025      4.8600      4.6371      4.3369      3.9645      3.5299      3.0528      2.5628    
  2.0935      1.6740      1.3205      1.0346     0.80704     0.62469     0.47635     0.35562     0.25997     0.18793    
 0.13683     0.10243     0.80141E-01 0.66426E-01 0.59212E-01 0.57594E-01 0.61396E-01 0.71047E-01 0.87861E-01 0.11449    
 0.15500     0.21404     0.29530     0.40082     0.53213     0.69302     0.89189      1.1412      1.4535      1.8344    
  2.2766      2.7582      3.2471      3.7102      6.1128      6.6574      7.0996      7.4238      7.6141      7.6589    
  7.5550      7.3093      6.9360      6.4510      5.8697      5.2087      4.4917      3.7542      3.0408      2.3951    
  1.8478      1.4091      1.0704     0.81185     0.61236     0.45597     0.33342     0.23996     0.17221     0.12608    
 0.96660E-01 0.79300E-01 0.70585E-01 0.68681E-01 0.73186E-01 0.85050E-01 0.10674     0.14224     0.19646     0.27407    
 0.37874     0.51408     0.68624     0.90707      1.1951      1.5718      2.0538      2.6428      3.3203      4.0489    
  4.7832      5.4814      8.9271      9.7869      10.496      11.020      11.327      11.400      11.232      10.835    
  10.233      9.4590      8.5494      7.5411      6.4732      5.3910      4.3473      3.3962      2.5817      1.9253    
  1.4230      1.0508     0.77693     0.57263     0.41763     0.30019     0.21394     0.15423     0.11596     0.93667E-01
 0.82732E-01 0.80379E-01 0.85968E-01 0.10100     0.12905     0.17524     0.24500     0.34314     0.47463     0.64751    
 0.87667      1.1861      1.6067      2.1686      2.8891      3.7623      4.7566      5.8224      6.9048      7.9538    
  12.974      14.288      15.335      16.070      16.483      16.578      16.356      15.815      14.952      13.791    
  12.389      10.829      9.2032      7.5965      6.0815      4.7179      3.5515      2.6074      1.8840      1.3544    
 0.97671     0.70736     0.51159     0.36686     0.26075     0.18626     0.13775     0.10931     0.95459E-01 0.92504E-01
 0.99542E-01 0.11866     0.15441     0.21262     0.29907     0.41960     0.58278     0.80459      1.1125      1.5455    
  2.1481      2.9578      3.9922      5.2418      6.6724      8.2319      9.8558      11.466      19.072      20.996    
  22.365      23.191      23.586      23.668      23.471      22.920      21.886      20.289      18.171      15.701    
  13.115      10.622      8.3625      6.4037      4.7694      3.4605      2.4595      1.7292      1.2160     0.86161    
 0.61462     0.43824     0.31075     0.22081     0.16137     0.12596     0.10847     0.10471     0.11364     0.13765    
 0.18190     0.25277     0.35677     0.50201     0.70324     0.98789      1.3990      1.9920      2.8249      3.9457    
  5.3837      7.1489      9.2327      11.597      14.149      16.717      28.551      31.247      32.775      33.354    
  33.438      33.428      33.434      33.209      32.298      30.308      27.170      23.196      18.931      14.892    
  11.391      8.5198      6.2385      4.4699      3.1378      2.1698      1.4930      1.0342     0.72554     0.51275    
 0.36178     0.25592     0.18595     0.14341     0.12134     0.11640     0.12801     0.15765     0.21017     0.29349    
 0.41610     0.58901     0.83488      1.1961      1.7335      2.5180      3.6229      5.1208      7.0850      9.5937    
  12.717      16.455      20.636      24.853      43.143      46.761      48.075      47.798      47.073      46.839    
  47.345      48.029      47.797      45.603      41.057      34.678      27.599      20.959      15.428      11.148    
  7.9542      5.6032      3.8888      2.6569      1.7965      1.2191     0.84135     0.58842     0.41142     0.28928    
 0.21047     0.16152     0.13355     0.12676     0.14235     0.17831     0.23764     0.33227     0.47491     0.67848    
 0.97366      1.4214      2.1020      3.0996      4.5091      6.4569      9.1173      12.717      17.488      23.506    
  30.435      37.384      64.891      69.310      69.484      67.410      65.216      64.588      65.981      68.364    
  69.815      68.121      61.791      51.531      39.888      29.230      20.637      14.316      9.8798      6.8064    
  4.6647      3.1571      2.1060      1.4046     0.95616     0.66213     0.45710     0.31867     0.23377     0.17989    
 0.14449     0.13502     0.15622     0.19905     0.26266     0.36665     0.53053     0.76653      1.1118      1.6491    
  2.4792      3.6977      5.4316      7.9028      11.462      16.589      23.794      33.285      44.530      55.964    
  96.354      100.90      97.738      91.693      87.129      85.945      88.609      94.124      99.653      100.20    
  91.906      75.596      56.364      39.461      26.783      17.850      11.892      7.9900      5.4009      3.6257    
  2.3935      1.5749      1.0613     0.72914     0.49616     0.34232     0.25446     0.19749     0.15363     0.14077    
 0.16890     0.21867     0.28373     0.39462     0.57965     0.84714      1.2382      1.8591      2.8312      4.2600    
  6.3164      9.3569      13.979      21.015      31.373      45.732      64.018      82.813      134.38      138.33    
  130.00      117.89      109.58      107.69      112.17      122.61      134.32      138.57      128.45      104.80    
  75.851      50.657      32.957      21.259      13.736      9.0192      6.0177      4.0121      2.6283      1.7126    
  1.1466     0.78349     0.52608     0.35926     0.27095     0.21254     0.16048     0.14416     0.17931     0.23525    
 0.29961     0.41490     0.61849     0.91280      1.3405      2.0294      3.1197      4.7257      7.0668      10.647    
  16.335      25.359      39.167      59.892      87.411      115.46      167.13      170.27      157.06      139.20    
  127.12      124.42      130.87      146.11      163.62      171.45      160.02      130.13      92.676      60.034    
  37.724      23.790      15.061      9.7313      6.4320      4.2678      2.7823      1.8023      1.2025     0.81914    
 0.54486     0.36929     0.28164     0.22283     0.16471     0.14575     0.18622     0.24651     0.30946     0.42705    
 0.64350     0.95596      1.4071      2.1405      3.3096      5.0353      7.5759      11.553      18.052      28.621    
  45.418      71.957      107.68      143.75      167.13      170.27      157.06      139.20      127.12      124.42    
  130.87      146.11      163.62      171.45      160.02      130.13      92.676      60.034      37.724      23.790    
  15.061      9.7313      6.4320      4.2678      2.7823      1.8023      1.2025     0.81914     0.54486     0.36929    
 0.28164     0.22283     0.16471     0.14575     0.18622     0.24651     0.30946     0.42705     0.64350     0.95596    
  1.4071      2.1405      3.3096      5.0353      7.5759      11.553      18.052      28.621      45.418      71.957    
  107.68      143.75      155.20      158.65      147.25      131.53      120.87      118.49      124.17      137.62    
  152.99      159.48      148.51      120.88      86.535      56.628      36.023      22.900      14.599      9.4852    
  6.2900      4.1806      2.7299      1.7719      1.1835     0.80705     0.53858     0.36600     0.27803     0.21930    
 0.16331     0.14528     0.18387     0.24265     0.30618     0.42305     0.63507     0.94130      1.3845      2.1028    
  3.2449      4.9295      7.4009      11.239      17.451      27.471      43.168      67.562      100.28      133.43    
  125.33      129.47      122.44      111.85      104.50      102.80      106.80      115.99      126.15      129.47    
  119.75      97.833      71.221      48.044      31.573      20.505      13.335      8.7992      5.8877      3.9314    
  2.5796      1.6842      1.1291     0.77235     0.52011     0.35600     0.26759     0.20938     0.15914     0.14360    
 0.17717     0.23179     0.29646     0.41097     0.61063     0.89930      1.3194      1.9942      3.0597      4.6281    
  6.9079      10.369      15.819      24.393      37.389      56.555      81.839      107.68      90.620      95.202    