H atom ! description                    
   1.0000000000000000     
     5.000000    0.000000    0.000000
     0.000000    5.000000    0.000000
     0.000000    0.000000    5.000000
   H 
     2
Direct
  0.000000  0.000000  0.000000
  0.200000  0.000000  0.000000

   48   48   48
 0.18022349557E+03 0.18297979505E+03 0.16775669791E+03 0.14752523503E+03 0.13385006093E+03
 0.13076982542E+03 0.13809355512E+03 0.15533854921E+03 0.17525180608E+03 0.18456618498E+03
 0.17265230053E+03 0.14029199971E+03 0.99431358593E+02 0.63765050607E+02 0.39556265402E+02
 0.24732412520E+02 0.15545706930E+02 0.99871580094E+01 0.65784939174E+01 0.43574393174E+01
 0.28359760209E+01 0.18333931033E+01 0.12219476018E+01 0.83159053425E+00 0.55126422637E+00
 0.37258908777E+00 0.28536040377E+00 0.22650805708E+00 0.16614072700E+00 0.14618575349E+00
 0.18865765822E+00 0.25050666392E+00 0.31279777718E+00 0.43106755658E+00 0.65215082257E+00
 0.97103965603E+00 0.14303004265E+01 0.21791356352E+01 0.33759548166E+01 0.51440805154E+01
 0.77569522880E+01 0.11881452705E+02 0.18685195989E+02 0.29841267669E+02 0.47865005832E+02
 0.76784821895E+02 0.11582293036E+03 0.15509106030E+03 0.16713222608E+03 0.17026623021E+03
 0.15705628121E+03 0.13920252822E+03 0.12712495457E+03 0.12442295816E+03 0.13086820766E+03
 0.14610715177E+03 0.16362399751E+03 0.17145182914E+03 0.16001928324E+03 0.13012769305E+03
 0.92676235253E+02 0.60033647663E+02 0.37723790178E+02 0.23790226443E+02 0.15060659615E+02
 0.97313168136E+01 0.64320097921E+01 0.42678326498E+01 0.27823028368E+01 0.18022616125E+01
 0.12024947701E+01 0.81914499524E+00 0.54486290228E+00 0.36929115980E+00 0.28164457222E+00
 0.22283149636E+00 0.16471060040E+00 0.14574785950E+00 0.18622456172E+00 0.24650517100E+00
 0.30946386497E+00 0.42704562168E+00 0.64350459414E+00 0.95596056248E+00 0.14071298605E+01
 0.21405122302E+01 0.33096231008E+01 0.50352807193E+01 0.75759323930E+01 0.11553406661E+02
 0.18052127915E+02 0.28620691035E+02 0.45418197066E+02 0.71957187181E+02 0.10768184597E+03
 0.14375055751E+03 0.13437602407E+03 0.13833164326E+03 0.13000209136E+03 0.11789420809E+03
 0.10958043434E+03 0.10769439335E+03 0.11216591957E+03 0.12261222012E+03 0.13431708979E+03
 0.13856716574E+03 0.12845019402E+03 0.10479767780E+03 0.75850521415E+02 0.50656993784E+02
 0.32957021530E+02 0.21258747147E+02 0.13736015048E+02 0.90191936650E+01 0.60176603551E+01
 0.40121115440E+01 0.26282968624E+01 0.17125871888E+01 0.11466485694E+01 0.78348780385E+00
 0.52607686739E+00 0.35926354170E+00 0.27094662193E+00 0.21253594319E+00 0.16047808908E+00
 0.14415690418E+00 0.17930895434E+00 0.23525239817E+00 0.29961373542E+00 0.41490262411E+00
 0.61848852717E+00 0.91279622331E+00 0.13404584364E+01 0.20293724837E+01 0.31196937315E+01
 0.47256518357E+01 0.70667706285E+01 0.10647284382E+02 0.16335320496E+02 0.25358625817E+02
 0.39167467588E+02 0.59892393291E+02 0.87410863445E+02 0.11546123879E+03 0.96354110154E+02
 0.10090111255E+03 0.97738089408E+02 0.91692699643E+02 0.87128578316E+02 0.85945298365E+02
 0.88609281876E+02 0.94124462697E+02 0.99652942178E+02 0.10019617707E+03 0.91906202238E+02
 0.75595512277E+02 0.56363800529E+02 0.39460611545E+02 0.26783208673E+02 0.17850137352E+02
 0.11891807604E+02 0.79899924544E+01 0.54008752326E+01 0.36257394918E+01 0.23935109117E+01
 0.15748902081E+01 0.10613221454E+01 0.72913856275E+00 0.49615603032E+00 0.34231663820E+00
 0.25446311232E+00 0.19748599630E+00 0.15362890188E+00 0.14077121148E+00 0.16890234512E+00
 0.21866696828E+00 0.28372834476E+00 0.39461517467E+00 0.57964627642E+00 0.84714409436E+00
 0.12382207997E+01 0.18590676185E+01 0.28311692792E+01 0.42599558448E+01 0.63164304949E+01
 0.93569460924E+01 0.13978933594E+02 0.21014760418E+02 0.31372743727E+02 0.45731635856E+02
 0.64018258434E+02 0.82812915302E+02 0.64890687083E+02 0.69309557895E+02 0.69484376268E+02
 0.67409592532E+02 0.65216288310E+02 0.64587553680E+02 0.65981426152E+02 0.68364067433E+02
 0.69814812919E+02 0.68120906388E+02 0.61791128844E+02 0.51530558298E+02 0.39888113384E+02
 0.29229637014E+02 0.20636593892E+02 0.14316068567E+02 0.98798360197E+01 0.68064308345E+01
 0.46647472242E+01 0.31571057261E+01 0.21059530201E+01 0.14045926064E+01 0.95616074465E+00
 0.66212754154E+00 0.45710115337E+00 0.31866575070E+00 0.23377387949E+00 0.17988527667E+00
 0.14449476776E+00 0.13501575581E+00 0.15622470576E+00 0.19904610943E+00 0.26266221884E+00
 0.36665144361E+00 0.53053029027E+00 0.76652886023E+00 0.11117999107E+01 0.16491089987E+01
 0.24792386515E+01 0.36977397128E+01 0.54316427315E+01 0.79027917479E+01 0.11462451708E+02
 0.16589290685E+02 0.23793834104E+02 0.33285398265E+02 0.44530184901E+02 0.55964216422E+02
 0.43143381346E+02 0.46760839671E+02 0.48075403110E+02 0.47797692663E+02 0.47073101452E+02
 0.46839259542E+02 0.47344861924E+02 0.48028756944E+02 0.47796777833E+02 0.45602628772E+02
 0.41056589364E+02 0.34677574653E+02 0.27599161427E+02 0.20958502722E+02 0.15427602392E+02
 0.11148429523E+02 0.79541540361E+01 0.56032284012E+01 0.38887747852E+01 0.26569104586E+01
 0.17964591485E+01 0.12190597723E+01 0.84134672791E+00 0.58842255537E+00 0.41141810649E+00
 0.28928394209E+00 0.21047122117E+00 0.16151775790E+00 0.13354548265E+00 0.12675665468E+00
 0.14234817179E+00 0.17830840881E+00 0.23764007277E+00 0.33227178900E+00 0.47490622847E+00
 0.67848110791E+00 0.97366454778E+00 0.14214161508E+01 0.21019647624E+01 0.30996214260E+01
 0.45091473474E+01 0.64568565240E+01 0.91173437778E+01 0.12716875701E+02 0.17487765455E+02
 0.23506112533E+02 0.30434603576E+02 0.37383624621E+02 0.28550884666E+02 0.31247059293E+02
 0.32774853605E+02 0.33354327916E+02 0.33438177302E+02 0.33428032656E+02 0.33433855583E+02
 0.33209468256E+02 0.32297692429E+02 0.30308426520E+02 0.27169976280E+02 0.23196194944E+02
 0.18931080311E+02 0.14892069222E+02 0.11391304796E+02 0.85197751050E+01 0.62384522833E+01
 0.44698804129E+01 0.31378068407E+01 0.21698097197E+01 0.14929602829E+01 0.10341969962E+01
 0.72554185345E+00 0.51275207783E+00 0.36177636574E+00 0.25592021306E+00 0.18594757484E+00
 0.14340844418E+00 0.12134282196E+00 0.11640099572E+00 0.12800923076E+00 0.15764836756E+00
 0.21017125771E+00 0.29349043597E+00 0.41610052348E+00 0.58901442651E+00 0.83487704941E+00
 0.11960882343E+01 0.17334752276E+01 0.25179549815E+01 0.36229103893E+01 0.51208032340E+01
 0.70849662218E+01 0.95937415610E+01 0.12717080526E+02 0.16455037536E+02 0.20635567882E+02
 0.24853309754E+02 0.19072174194E+02 0.20996305128E+02 0.22365094727E+02 0.23190832650E+02
 0.23585721775E+02 0.23667716450E+02 0.23470809795E+02 0.22919807154E+02 0.21886437400E+02
 0.20289289205E+02 0.18170778928E+02 0.15701490367E+02 0.13114808971E+02 0.10622075731E+02
 0.83624529848E+01 0.64036965437E+01 0.47694203458E+01 0.34604667547E+01 0.24595017400E+01
 0.17291771464E+01 0.12160324740E+01 0.86161343258E+00 0.61461805271E+00 0.43824255022E+00
 0.31075305439E+00 0.22081144231E+00 0.16137027183E+00 0.12595776216E+00 0.10847002721E+00
 0.10471332673E+00 0.11364416013E+00 0.13765420056E+00 0.18189735507E+00 0.25276865841E+00
 0.35676580390E+00 0.50200927107E+00 0.70324315996E+00 0.98789426065E+00 0.13990121915E+01
 0.19919983381E+01 0.28248740929E+01 0.39456824254E+01 0.53837486683E+01 0.71489267396E+01
 0.92326776691E+01 0.11597173699E+02 0.14148713200E+02 0.16716717805E+02 0.12974157442E+02
 0.14288385814E+02 0.15334662884E+02 0.16070093139E+02 0.16483001706E+02 0.16577632132E+02
 0.16356389424E+02 0.15814540506E+02 0.14951838781E+02 0.13791282545E+02 0.12389315401E+02
 0.10829198617E+02 0.92031632163E+01 0.75964879838E+01 0.60814628157E+01 0.47178694788E+01
 0.35514583727E+01 0.26073745536E+01 0.18840029691E+01 0.13544341078E+01 0.97670639659E+00
 0.70735726505E+00 0.51159045279E+00 0.36685762994E+00 0.26074508864E+00 0.18625858590E+00
 0.13774827365E+00 0.10931342514E+00 0.95458576265E-01 0.92503507822E-01 0.99541839055E-01
 0.11865589894E+00 0.15440757665E+00 0.21261813347E+00 0.29906777613E+00 0.41959683052E+00
 0.58278031388E+00 0.80458622902E+00 0.11124711815E+01 0.15455142691E+01 0.21481087224E+01
 0.29578030452E+01 0.39921957807E+01 0.52418332275E+01 0.66723774863E+01 0.82319138968E+01
 0.98557548686E+01 0.11466296523E+02 0.89271480707E+01 0.97868572203E+01 0.10496224393E+02
 0.11019819797E+02 0.11327496289E+02 0.11399773631E+02 0.11231880347E+02 0.10834785516E+02
 0.10232848127E+02 0.94589640127E+01 0.85493831943E+01 0.75410608452E+01 0.64731739003E+01
 0.53910198926E+01 0.43472816110E+01 0.33962280671E+01 0.25816746329E+01 0.19253364079E+01
 0.14230136439E+01 0.10507947409E+01 0.77692810811E+00 0.57263239591E+00 0.41762847567E+00
 0.30018690689E+00 0.21394315795E+00 0.15422843098E+00 0.11595848005E+00 0.93667256618E-01
 0.82731903195E-01 0.80378926844E-01 0.85968327844E-01 0.10099636889E+00 0.12904685982E+00
 0.17523834153E+00 0.24499867645E+00 0.34313700879E+00 0.47462833095E+00 0.64751249733E+00
 0.87667420745E+00 0.11860716137E+01 0.16066783406E+01 0.21686048214E+01 0.28891374495E+01
 0.37623307386E+01 0.47566066202E+01 0.58223577529E+01 0.69047555422E+01 0.79538254979E+01
 0.61128269895E+01 0.66574128061E+01 0.70996238779E+01 0.74237964579E+01 0.76141217002E+01
 0.76588639807E+01 0.75549579870E+01 0.73093377822E+01 0.69359975947E+01 0.64510258563E+01
 0.58697129910E+01 0.52086577685E+01 0.44916728812E+01 0.37541885787E+01 0.30407601169E+01
 0.23950834464E+01 0.18477875881E+01 0.14091496516E+01 0.10704126474E+01 0.81184517234E+00
 0.61235547270E+00 0.45597191971E+00 0.33341625037E+00 0.23996042543E+00 0.17221038675E+00
 0.12607683056E+00 0.96659770466E-01 0.79299820040E-01 0.70585437500E-01 0.68681228556E-01
 0.73185676474E-01 0.85050439799E-01 0.10673861701E+00 0.14224161366E+00 0.19646227354E+00
 0.27406514185E+00 0.37874457355E+00 0.51408282581E+00 0.68623967136E+00 0.90706904934E+00
 0.11950546238E+01 0.15717735248E+01 0.20537610621E+01 0.26428485964E+01 0.33202788458E+01
 0.40489059021E+01 0.47831823787E+01 0.54813605953E+01 0.41216556615E+01 0.44660091053E+01
 0.47357079024E+01 0.49268575895E+01 0.50363711904E+01 0.50618233727E+01 0.50025444065E+01
 0.48600268573E+01 0.46370712655E+01 0.43369328967E+01 0.39644696169E+01 0.35298924345E+01
 0.30528390747E+01 0.25627734533E+01 0.20935044549E+01 0.16739664480E+01 0.13204613880E+01
 0.10345680634E+01 0.80704434617E+00 0.62468997514E+00 0.47635161107E+00 0.35562189357E+00
 0.25996588485E+00 0.18792899956E+00 0.13683156719E+00 0.10242641255E+00 0.80140723880E-01
 0.66425993111E-01 0.59212291707E-01 0.57594171284E-01 0.61395730304E-01 0.71047352788E-01
 0.87860898194E-01 0.11448958183E+00 0.15500486907E+00 0.21403940329E+00 0.29530229495E+00
 0.40082027726E+00 0.53212548217E+00 0.69302084025E+00 0.89188754910E+00 0.11412370155E+01
 0.14535311929E+01 0.18344316401E+01 0.22766449727E+01 0.27581935147E+01 0.32470551615E+01
 0.37101622448E+01 0.27649375188E+01 0.29913057768E+01 0.31648407890E+01 0.32844279907E+01
 0.33512540873E+01 0.33665845273E+01 0.33307590459E+01 0.32430105130E+01 0.31019210156E+01
 0.29068895999E+01 0.26607940700E+01 0.23728694032E+01 0.20597769262E+01 0.17432567007E+01
 0.14447765450E+01 0.11797412640E+01 0.95430957748E+00 0.76626499030E+00 0.60897030697E+00
 0.47590836161E+00 0.36344918313E+00 0.27088616373E+00 0.19847913421E+00 0.14527128402E+00
 0.10824838393E+00 0.83184094317E-01 0.66239190616E-01 0.55051963011E-01 0.48758615778E-01
 0.47295868577E-01 0.50700921251E-01 0.58918267384E-01 0.72232190192E-01 0.92046641660E-01
 0.12137714726E+00 0.16440060648E+00 0.22503878216E+00 0.30549983001E+00 0.40605395594E+00
 0.52653515256E+00 0.66866259036E+00 0.83737893664E+00 0.10397210419E+01 0.12811319740E+01
 0.15608269022E+01 0.18688226492E+01 0.21867036188E+01 0.24921489808E+01 0.18832825946E+01
 0.20400924060E+01 0.21611392021E+01 0.22443842867E+01 0.22906068689E+01 0.23011631700E+01
 0.22764639297E+01 0.22156080526E+01 0.21172306865E+01 0.19814007451E+01 0.18118752597E+01
 0.16174124386E+01 0.14109742083E+01 0.12067863154E+01 0.10165835880E+01 0.84690691823E+00
 0.69872309061E+00 0.56936767152E+00 0.45557846324E+00 0.35584298794E+00 0.27081989207E+00
 0.20195342734E+00 0.14959429624E+00 0.11203748833E+00 0.85954640804E-01 0.67678760120E-01
 0.54451224583E-01 0.45012419374E-01 0.39373646249E-01 0.38025203193E-01 0.41141676827E-01
 0.48353311933E-01 0.59251570251E-01 0.74259960106E-01 0.95254654487E-01 0.12547377987E+00
 0.16861921129E+00 0.22749640108E+00 0.30296524211E+00 0.39404711824E+00 0.49937737290E+00
 0.61908047054E+00 0.75554114624E+00 0.91214145584E+00 0.10904348107E+01 0.12873440571E+01
 0.14940599156E+01 0.16974283468E+01 0.12964222227E+01 0.14069355125E+01 0.14950382763E+01
 0.15572663530E+01 0.15924516670E+01 0.16005534301E+01 0.15816361088E+01 0.15355937983E+01
 0.14627698639E+01 0.13651299951E+01 0.12472582206E+01 0.11163873048E+01 0.98113083954E+00
 0.84937249625E+00 0.72636136211E+00 0.61401998954E+00 0.51179776126E+00 0.41850706432E+00
 0.33399848054E+00 0.25965592408E+00 0.19751195370E+00 0.14874961054E+00 0.11271567543E+00
 0.87051983228E-01 0.68681303387E-01 0.54926504257E-01 0.44207767314E-01 0.36155516002E-01
 0.31225998162E-01 0.30037978606E-01 0.32778894695E-01 0.39038598409E-01 0.48179143557E-01
 0.60004185138E-01 0.75345553127E-01 0.96268027600E-01 0.12572370821E+00 0.16664556398E+00
 0.22079472768E+00 0.28804005323E+00 0.36668894940E+00 0.45479722009E+00 0.55155735787E+00
 0.65767527740E+00 0.77432181444E+00 0.90124566972E+00 0.10352127956E+01 0.11697523891E+01
 0.87985650283E+00 0.95515021015E+00 0.10182742518E+01 0.10649837278E+01 0.10923263942E+01
 0.10987283816E+01 0.10838434344E+01 0.10484904704E+01 0.99478203042E+00 0.92622161765E+00
 0.84744335941E+00 0.76347338976E+00 0.67871782965E+00 0.59610837135E+00 0.51685411674E+00
 0.44100409841E+00 0.36855702673E+00 0.30043226108E+00 0.23863562612E+00 0.18550663275E+00
 0.14259160070E+00 0.10989615817E+00 0.85918365793E-01 0.68330227589E-01 0.54867944361E-01
 0.44001646033E-01 0.35153793377E-01 0.28486925809E-01 0.24476775448E-01 0.23523289019E-01
 0.25731302651E-01 0.30863326436E-01 0.38452252976E-01 0.48094095332E-01 0.59876959578E-01
 0.74754682248E-01 0.94604424114E-01 0.12181617986E+00 0.15849364384E+00 0.20558937336E+00
 0.26243933682E+00 0.32705419959E+00 0.39709600916E+00 0.47094844996E+00 0.54813580928E+00
 0.62878151260E+00 0.71248706952E+00 0.79737663289E+00 0.59406529893E+00 0.64233206693E+00
 0.68411985120E+00 0.71601290391E+00 0.73512220898E+00 0.73964704429E+00 0.72915666351E+00
 0.70464762705E+00 0.66840490703E+00 0.62361094874E+00 0.57368183624E+00 0.52148590183E+00
 0.46876503333E+00 0.41606862168E+00 0.36328794171E+00 0.31053956636E+00 0.25888093818E+00
 0.21037433865E+00 0.16741367178E+00 0.13173822273E+00 0.10376076202E+00 0.82567433621E-01
 0.66476260005E-01 0.53767190448E-01 0.43232588273E-01 0.34374851211E-01 0.27252678849E-01
 0.22134883685E-01 0.19213259030E-01 0.18538962040E-01 0.20112766410E-01 0.23925605445E-01
 0.29876563515E-01 0.37721712453E-01 0.47232863297E-01 0.58537840897E-01 0.72417557700E-01
 0.90329818265E-01 0.11406149236E+00 0.14507473685E+00 0.18379581847E+00 0.22924136452E+00
 0.27929916845E+00 0.33159298557E+00 0.38441843136E+00 0.43714620924E+00 0.48985816835E+00
 0.54249589255E+00 0.41461774207E+00 0.44397452555E+00 0.46825056557E+00 0.48615744795E+00
 0.49665903729E+00 0.49912269522E+00 0.49339777695E+00 0.47983309034E+00 0.45923582388E+00
 0.43276567430E+00 0.40175223826E+00 0.36745716857E+00 0.33088639208E+00 0.29280243592E+00
 0.25397800367E+00 0.21551491144E+00 0.17894194476E+00 0.14594140148E+00 0.11783030224E+00
 0.95101620379E-01 0.77293132683E-01 0.63261411551E-01 0.51722345898E-01 0.41776567788E-01
 0.33144339446E-01 0.26015304428E-01 0.20672628005E-01 0.17184872391E-01 0.15364814899E-01
 0.14965124487E-01 0.15910305091E-01 0.18365202381E-01 0.22584243778E-01 0.28665914718E-01
 0.36433970205E-01 0.45595370692E-01 0.56109612412E-01 0.68506875444E-01 0.83889672038E-01
 0.10355682405E+00 0.12843452417E+00 0.15861404125E+00 0.19323452573E+00 0.23076703432E+00
 0.26953628507E+00 0.30817248354E+00 0.34573556337E+00 0.38149779139E+00 0.29126028223E+00
 0.30894346898E+00 0.32211040847E+00 0.33091501355E+00 0.33570804116E+00 0.33679229440E+00
 0.33424921602E+00 0.32789562513E+00 0.31738284306E+00 0.30240864480E+00 0.28296317261E+00
 0.25950080898E+00 0.23296749582E+00 0.20469285203E+00 0.17620308004E+00 0.14900049899E+00
 0.12433739249E+00 0.10302191475E+00 0.85304310185E-01 0.70879293517E-01 0.59025348111E-01
 0.48882947643E-01 0.39806478311E-01 0.31621504741E-01 0.24606812905E-01 0.19189105189E-01
 0.15567575721E-01 0.13543749430E-01 0.12655053890E-01 0.12481016508E-01 0.12905906691E-01
 0.14188541417E-01 0.16804710677E-01 0.21143262075E-01 0.27243468897E-01 0.34778278331E-01
 0.43332234120E-01 0.52784587573E-01 0.63514381507E-01 0.76293687109E-01 0.91967646128E-01
 0.11111730192E+00 0.13383441910E+00 0.15963879239E+00 0.18752544532E+00 0.21611591459E+00
 0.24387088402E+00 0.26931750345E+00 0.19218973941E+00 0.20360087119E+00 0.21232017968E+00
 0.21830323570E+00 0.22162576454E+00 0.22238465761E+00 0.22060906869E+00 0.21623513025E+00
 0.20916194581E+00 0.19935105345E+00 0.18691708074E+00 0.17218645747E+00 0.15571986304E+00
 0.13828579950E+00 0.12077287512E+00 0.10405344864E+00 0.88832200636E-01 0.75511495152E-01
 0.64110205465E-01 0.54293039837E-01 0.45549514844E-01 0.37469995394E-01 0.29968417552E-01
 0.23309228519E-01 0.17922155146E-01 0.14124430716E-01 0.11913028759E-01 0.10935820816E-01
 0.10655322092E-01 0.10623055443E-01 0.10717946510E-01 0.11211842175E-01 0.12623063703E-01
 0.15444512717E-01 0.19898411175E-01 0.25844805612E-01 0.32889270539E-01 0.40636310644E-01
 0.48949833496E-01 0.58061616293E-01 0.68455304802E-01 0.80601587713E-01 0.94707081531E-01
 0.11059542942E+00 0.12772953556E+00 0.14531990617E+00 0.16246955567E+00 0.17832363407E+00
 0.12857637192E+00 0.13704384019E+00 0.14422757260E+00 0.14962687235E+00 0.15282760281E+00
 0.15358161034E+00 0.15183122325E+00 0.14771094968E+00 0.14154089359E+00 0.13378267231E+00
 0.12493839114E+00 0.11543322254E+00 0.10555522145E+00 0.95487289876E-01 0.85396368105E-01
 0.75505024128E-01 0.66080899582E-01 0.57337258483E-01 0.49319543872E-01 0.41893285689E-01
 0.34881001273E-01 0.28254968763E-01 0.22223300269E-01 0.17136248645E-01 0.13294185032E-01
 0.10794419094E-01 0.94845741187E-02 0.90123468578E-02 0.89484408602E-02 0.89575443854E-02
 0.89506624481E-02 0.91283433071E-02 0.98849181763E-02 0.11637610945E-01 0.14669776748E-01
 0.19035139673E-01 0.24543276977E-01 0.30850680605E-01 0.37643207982E-01 0.44805596914E-01
 0.52445075844E-01 0.60745531760E-01 0.69778079746E-01 0.79420651982E-01 0.89422854334E-01
 0.99527319444E-01 0.10953803740E+00 0.11929305156E+00 0.10481851581E+00 0.11168289744E+00
 0.11691988328E+00 0.12046175513E+00 0.12239544315E+00 0.12283280024E+00 0.12180686005E+00
 0.11924485504E+00 0.11502944147E+00 0.10912103974E+00 0.10167675700E+00 0.93091491244E-01
 0.83928589996E-01 0.74776027617E-01 0.66099567395E-01 0.58147573219E-01 0.50932392858E-01
 0.44295025660E-01 0.38034469287E-01 0.32042447372E-01 0.26369742451E-01 0.21196302157E-01
 0.16743533474E-01 0.13186813505E-01 0.10596567019E-01 0.89122277560E-02 0.79568079490E-02
 0.74958273702E-02 0.73158744832E-02 0.72828223982E-02 0.73649019103E-02 0.76358667088E-02
 0.82661505792E-02 0.94864793948E-02 0.11517583600E-01 0.14494653682E-01 0.18425068476E-01
 0.23191394301E-01 0.28590974332E-01 0.34407407820E-01 0.40503717343E-01 0.46894299454E-01
 0.53737693379E-01 0.61235730982E-01 0.69491649043E-01 0.78401832240E-01 0.87624125153E-01
 0.96628739007E-01 0.89264189909E-01 0.94501610612E-01 0.97829992928E-01 0.99603760815E-01
 0.10035303957E+00 0.10049661676E+00 0.10014403481E+00 0.99047286991E-01 0.96712177133E-01
 0.92643193666E-01 0.86632561161E-01 0.78944999552E-01 0.70280585051E-01 0.61524214423E-01
 0.53414709955E-01 0.46304285998E-01 0.40125269902E-01 0.34571792519E-01 0.29377503303E-01
 0.24501299506E-01 0.20104524710E-01 0.16379534108E-01 0.13401465359E-01 0.11108641425E-01
 0.93698667589E-02 0.80477521581E-02 0.70345220801E-02 0.62833096070E-02 0.58214815604E-02
 0.57093292285E-02 0.59674854494E-02 0.65520751325E-02 0.74074612902E-02 0.85345152487E-02
 0.10008030772E-01 0.11951287327E-01 0.14504575871E-01 0.17780623040E-01 0.21791842751E-01
 0.26406127851E-01 0.31420548309E-01 0.36739079881E-01 0.42502577352E-01 0.49024768657E-01
 0.56548183437E-01 0.64983646098E-01 0.73807173497E-01 0.82184052321E-01 0.61468970883E-01
 0.65016958465E-01 0.67870939547E-01 0.69907781315E-01 0.71068834118E-01 0.71337221643E-01
 0.70711164535E-01 0.69196113221E-01 0.66822069730E-01 0.63671857600E-01 0.59895229219E-01
 0.55690818398E-01 0.51256745018E-01 0.46732608790E-01 0.42168791551E-01 0.37549875282E-01
 0.32866494733E-01 0.28192249825E-01 0.23711683111E-01 0.19674705206E-01 0.16299926489E-01
 0.13679774348E-01 0.11737579018E-01 0.10259966999E-01 0.89927509554E-02 0.77574880108E-02
 0.65318118129E-02 0.54514250047E-02 0.47321362647E-02 0.45532478142E-02 0.49628802791E-02
 0.58528069680E-02 0.70151893103E-02 0.82531272316E-02 0.94887433639E-02 0.10812011663E-01
 0.12444594316E-01 0.14638418740E-01 0.17560800403E-01 0.21220320232E-01 0.25465136324E-01
 0.30051328422E-01 0.34745389435E-01 0.39405801433E-01 0.43999276813E-01 0.48547839847E-01
 0.53047116742E-01 0.57410507511E-01 0.45065599126E-01 0.47847699406E-01 0.50880345871E-01
 0.53582674199E-01 0.55356752792E-01 0.55793265487E-01 0.54790779968E-01 0.52581985620E-01
 0.49671441637E-01 0.46678293982E-01 0.44110856116E-01 0.42164167262E-01 0.40648615499E-01
 0.39094149909E-01 0.36982738464E-01 0.34001137345E-01 0.30192313024E-01 0.25927037127E-01
 0.21718954972E-01 0.18007160506E-01 0.15032162434E-01 0.12826395518E-01 0.11253219060E-01
 0.10054529089E-01 0.89362020186E-02 0.77033819185E-02 0.63700899964E-02 0.51496937260E-02
 0.43297423006E-02 0.41258493623E-02 0.45928754764E-02 0.56056999597E-02 0.69051691167E-02
 0.82145999586E-02 0.93902577908E-02 0.10508521834E-01 0.11821085530E-01 0.13621844604E-01
 0.16127419523E-01 0.19411962749E-01 0.23363484726E-01 0.27655491250E-01 0.31797069069E-01
 0.35304006231E-01 0.37921274631E-01 0.39755838522E-01 0.41229232478E-01 0.42872296054E-01
 0.61468970883E-01 0.65016958465E-01 0.67870939547E-01 0.69907781315E-01 0.71068834118E-01
 0.71337221643E-01 0.70711164535E-01 0.69196113221E-01 0.66822069730E-01 0.63671857600E-01
 0.59895229219E-01 0.55690818398E-01 0.51256745018E-01 0.46732608790E-01 0.42168791551E-01
 0.37549875282E-01 0.32866494733E-01 0.28192249825E-01 0.23711683111E-01 0.19674705206E-01
 0.16299926489E-01 0.13679774348E-01 0.11737579018E-01 0.10259966999E-01 0.89927509554E-02
 0.77574880108E-02 0.65318118129E-02 0.54514250047E-02 0.47321362647E-02 0.45532478142E-02
 0.49628802791E-02 0.58528069680E-02 0.70151893103E-02 0.82531272316E-02 0.94887433639E-02
 0.10812011663E-01 0.12444594316E-01 0.14638418740E-01 0.17560800403E-01 0.21220320232E-01
 0.25465136324E-01 0.30051328422E-01 0.34745389435E-01 0.39405801433E-01 0.43999276813E-01
 0.48547839847E-01 0.53047116742E-01 0.57410507511E-01 0.89264189909E-01 0.94501610612E-01
 0.97829992928E-01 0.99603760815E-01 0.10035303957E+00 0.10049661676E+00 0.10014403481E+00
 0.99047286991E-01 0.96712177133E-01 0.92643193666E-01 0.86632561161E-01 0.78944999552E-01
 0.70280585051E-01 0.61524214423E-01 0.53414709955E-01 0.46304285998E-01 0.40125269902E-01
 0.34571792519E-01 0.29377503303E-01 0.24501299506E-01 0.20104524710E-01 0.16379534108E-01
 0.13401465359E-01 0.11108641425E-01 0.93698667589E-02 0.80477521581E-02 0.70345220801E-02
 0.62833096070E-02 0.58214815604E-02 0.57093292285E-02 0.59674854494E-02 0.65520751325E-02
 0.74074612902E-02 0.85345152487E-02 0.10008030772E-01 0.11951287327E-01 0.14504575871E-01
 0.17780623040E-01 0.21791842751E-01 0.26406127851E-01 0.31420548309E-01 0.36739079881E-01
 0.42502577352E-01 0.49024768657E-01 0.56548183437E-01 0.64983646098E-01 0.73807173497E-01
 0.82184052321E-01 0.10481851581E+00 0.11168289744E+00 0.11691988328E+00 0.12046175513E+00
 0.12239544315E+00 0.12283280024E+00 0.12180686005E+00 0.11924485504E+00 0.11502944147E+00
 0.10912103974E+00 0.10167675700E+00 0.93091491244E-01 0.83928589996E-01 0.74776027617E-01
 0.66099567395E-01 0.58147573219E-01 0.50932392858E-01 0.44295025660E-01 0.38034469287E-01
 0.32042447372E-01 0.26369742451E-01 0.21196302157E-01 0.16743533474E-01 0.13186813505E-01
 0.10596567019E-01 0.89122277560E-02 0.79568079490E-02 0.74958273702E-02 0.73158744832E-02
 0.72828223982E-02 0.73649019103E-02 0.76358667088E-02 0.82661505792E-02 0.94864793948E-02
 0.11517583600E-01 0.14494653682E-01 0.18425068476E-01 0.23191394301E-01 0.28590974332E-01
 0.34407407820E-01 0.40503717343E-01 0.46894299454E-01 0.53737693379E-01 0.61235730982E-01
 0.69491649043E-01 0.78401832240E-01 0.87624125153E-01 0.96628739007E-01 0.12857637192E+00
 0.13704384019E+00 0.14422757260E+00 0.14962687235E+00 0.15282760281E+00 0.15358161034E+00
 0.15183122325E+00 0.14771094968E+00 0.14154089359E+00 0.13378267231E+00 0.12493839114E+00
 0.11543322254E+00 0.10555522145E+00 0.95487289876E-01 0.85396368105E-01 0.75505024128E-01
 0.66080899582E-01 0.57337258483E-01 0.49319543872E-01 0.41893285689E-01 0.34881001273E-01
 0.28254968763E-01 0.22223300269E-01 0.17136248645E-01 0.13294185032E-01 0.10794419094E-01
 0.94845741187E-02 0.90123468578E-02 0.89484408602E-02 0.89575443854E-02 0.89506624481E-02
 0.91283433071E-02 0.98849181763E-02 0.11637610945E-01 0.14669776748E-01 0.19035139673E-01
 0.24543276977E-01 0.30850680605E-01 0.37643207982E-01 0.44805596914E-01 0.52445075844E-01
 0.60745531760E-01 0.69778079746E-01 0.79420651982E-01 0.89422854334E-01 0.99527319444E-01
 0.10953803740E+00 0.11929305156E+00 0.19218973941E+00 0.20360087119E+00 0.21232017968E+00
 0.21830323570E+00 0.22162576454E+00 0.22238465761E+00 0.22060906869E+00 0.21623513025E+00
 0.20916194581E+00 0.19935105345E+00 0.18691708074E+00 0.17218645747E+00 0.15571986304E+00
 0.13828579950E+00 0.12077287512E+00 0.10405344864E+00 0.88832200636E-01 0.75511495152E-01
 0.64110205465E-01 0.54293039837E-01 0.45549514844E-01 0.37469995394E-01 0.29968417552E-01
 0.23309228519E-01 0.17922155146E-01 0.14124430716E-01 0.11913028759E-01 0.10935820816E-01
 0.10655322092E-01 0.10623055443E-01 0.10717946510E-01 0.11211842175E-01 0.12623063703E-01
 0.15444512717E-01 0.19898411175E-01 0.25844805612E-01 0.32889270539E-01 0.40636310644E-01
 0.48949833496E-01 0.58061616293E-01 0.68455304802E-01 0.80601587713E-01 0.94707081531E-01
 0.11059542942E+00 0.12772953556E+00 0.14531990617E+00 0.16246955567E+00 0.17832363407E+00
 0.29126028223E+00 0.30894346898E+00 0.32211040847E+00 0.33091501355E+00 0.33570804116E+00
 0.33679229440E+00 0.33424921602E+00 0.32789562513E+00 0.31738284306E+00 0.30240864480E+00
 0.28296317261E+00 0.25950080898E+00 0.23296749582E+00 0.20469285203E+00 0.17620308004E+00
 0.14900049899E+00 0.12433739249E+00 0.10302191475E+00 0.85304310185E-01 0.70879293517E-01
 0.59025348111E-01 0.48882947643E-01 0.39806478311E-01 0.31621504741E-01 0.24606812905E-01
 0.19189105189E-01 0.15567575721E-01 0.13543749430E-01 0.12655053890E-01 0.12481016508E-01
 0.12905906691E-01 0.14188541417E-01 0.16804710677E-01 0.21143262075E-01 0.27243468897E-01
 0.34778278331E-01 0.43332234120E-01 0.52784587573E-01 0.63514381507E-01 0.76293687109E-01
 0.91967646128E-01 0.11111730192E+00 0.13383441910E+00 0.15963879239E+00 0.18752544532E+00
 0.21611591459E+00 0.24387088402E+00 0.26931750345E+00 0.41461774207E+00 0.44397452555E+00
 0.46825056557E+00 0.48615744795E+00 0.49665903729E+00 0.49912269522E+00 0.49339777695E+00
 0.47983309034E+00 0.45923582388E+00 0.43276567430E+00 0.40175223826E+00 0.36745716857E+00
 0.33088639208E+00 0.29280243592E+00 0.25397800367E+00 0.21551491144E+00 0.17894194476E+00
 0.14594140148E+00 0.11783030224E+00 0.95101620379E-01 0.77293132683E-01 0.63261411551E-01
 0.51722345898E-01 0.41776567788E-01 0.33144339446E-01 0.26015304428E-01 0.20672628005E-01
 0.17184872391E-01 0.15364814899E-01 0.14965124487E-01 0.15910305091E-01 0.18365202381E-01
 0.22584243778E-01 0.28665914718E-01 0.36433970205E-01 0.45595370692E-01 0.56109612412E-01
 0.68506875444E-01 0.83889672038E-01 0.10355682405E+00 0.12843452417E+00 0.15861404125E+00
 0.19323452573E+00 0.23076703432E+00 0.26953628507E+00 0.30817248354E+00 0.34573556337E+00
 0.38149779139E+00 0.59406529893E+00 0.64233206693E+00 0.68411985120E+00 0.71601290391E+00
 0.73512220898E+00 0.73964704429E+00 0.72915666351E+00 0.70464762705E+00 0.66840490703E+00
 0.62361094874E+00 0.57368183624E+00 0.52148590183E+00 0.46876503333E+00 0.41606862168E+00
 0.36328794171E+00 0.31053956636E+00 0.25888093818E+00 0.21037433865E+00 0.16741367178E+00
 0.13173822273E+00 0.10376076202E+00 0.82567433621E-01 0.66476260005E-01 0.53767190448E-01
 0.43232588273E-01 0.34374851211E-01 0.27252678849E-01 0.22134883685E-01 0.19213259030E-01
 0.18538962040E-01 0.20112766410E-01 0.23925605445E-01 0.29876563515E-01 0.37721712453E-01
 0.47232863297E-01 0.58537840897E-01 0.72417557700E-01 0.90329818265E-01 0.11406149236E+00
 0.14507473685E+00 0.18379581847E+00 0.22924136452E+00 0.27929916845E+00 0.33159298557E+00
 0.38441843136E+00 0.43714620924E+00 0.48985816835E+00 0.54249589255E+00 0.87985650283E+00
 0.95515021015E+00 0.10182742518E+01 0.10649837278E+01 0.10923263942E+01 0.10987283816E+01
 0.10838434344E+01 0.10484904704E+01 0.99478203042E+00 0.92622161765E+00 0.84744335941E+00
 0.76347338976E+00 0.67871782965E+00 0.59610837135E+00 0.51685411674E+00 0.44100409841E+00
 0.36855702673E+00 0.30043226108E+00 0.23863562612E+00 0.18550663275E+00 0.14259160070E+00
 0.10989615817E+00 0.85918365793E-01 0.68330227589E-01 0.54867944361E-01 0.44001646033E-01
 0.35153793377E-01 0.28486925809E-01 0.24476775448E-01 0.23523289019E-01 0.25731302651E-01
 0.30863326436E-01 0.38452252976E-01 0.48094095332E-01 0.59876959578E-01 0.74754682248E-01
 0.94604424114E-01 0.12181617986E+00 0.15849364384E+00 0.20558937336E+00 0.26243933682E+00
 0.32705419959E+00 0.39709600916E+00 0.47094844996E+00 0.54813580928E+00 0.62878151260E+00