   2   2   0   0
  0.6250000E+02  0.5000000E-09  0.5000000E-09  0.5000000E-09  0.5000000E-15
   1.0000000000000000E-004
  CAR 
 H atom ! description                    
      4.52552196     -9.77176741  301     -8.94967327      1.00000000
     -9.772  0.0000E+00  0.0000E+00
     -9.724  0.0000E+00  0.0000E+00
     -9.676  0.0000E+00  0.0000E+00
     -9.629  0.0000E+00  0.0000E+00
     -9.581  0.0000E+00  0.0000E+00
     -9.533  0.0000E+00  0.0000E+00
     -9.486  0.0000E+00  0.0000E+00
     -9.438  0.0000E+00  0.0000E+00
     -9.391  0.0000E+00  0.0000E+00
     -9.343  0.0000E+00  0.0000E+00
     -9.295  0.0000E+00  0.0000E+00
     -9.248  0.0000E+00  0.0000E+00
     -9.200  0.0000E+00  0.0000E+00
     -9.152  0.1395E-04  0.6648E-06
     -9.105  0.1810E+01  0.8627E-01
     -9.057  0.1465E+02  0.7843E+00
     -9.009  0.2392E+02  0.1924E+01
     -8.962  0.1593E+01  0.2000E+01
     -8.914  0.0000E+00  0.2000E+01
     -8.866  0.0000E+00  0.2000E+01
     -8.819  0.0000E+00  0.2000E+01
     -8.771  0.0000E+00  0.2000E+01
     -8.723  0.0000E+00  0.2000E+01
     -8.676  0.0000E+00  0.2000E+01
     -8.628  0.0000E+00  0.2000E+01
     -8.580  0.0000E+00  0.2000E+01
     -8.533  0.0000E+00  0.2000E+01
     -8.485  0.0000E+00  0.2000E+01
     -8.437  0.0000E+00  0.2000E+01
     -8.390  0.0000E+00  0.2000E+01
     -8.342  0.0000E+00  0.2000E+01
     -8.294  0.0000E+00  0.2000E+01
     -8.247  0.0000E+00  0.2000E+01
     -8.199  0.0000E+00  0.2000E+01
     -8.151  0.0000E+00  0.2000E+01
     -8.104  0.0000E+00  0.2000E+01
     -8.056  0.0000E+00  0.2000E+01
     -8.008  0.0000E+00  0.2000E+01
     -7.961  0.0000E+00  0.2000E+01
     -7.913  0.0000E+00  0.2000E+01
     -7.865  0.0000E+00  0.2000E+01
     -7.818  0.0000E+00  0.2000E+01
     -7.770  0.0000E+00  0.2000E+01
     -7.722  0.0000E+00  0.2000E+01
     -7.675  0.0000E+00  0.2000E+01
     -7.627  0.0000E+00  0.2000E+01
     -7.580  0.0000E+00  0.2000E+01
     -7.532  0.0000E+00  0.2000E+01
     -7.484  0.0000E+00  0.2000E+01
     -7.437  0.0000E+00  0.2000E+01
     -7.389  0.0000E+00  0.2000E+01
     -7.341  0.0000E+00  0.2000E+01
     -7.294  0.0000E+00  0.2000E+01
     -7.246  0.0000E+00  0.2000E+01
     -7.198  0.0000E+00  0.2000E+01
     -7.151  0.0000E+00  0.2000E+01
     -7.103  0.0000E+00  0.2000E+01
     -7.055  0.0000E+00  0.2000E+01
     -7.008  0.0000E+00  0.2000E+01
     -6.960  0.0000E+00  0.2000E+01
     -6.912  0.0000E+00  0.2000E+01
     -6.865  0.0000E+00  0.2000E+01
     -6.817  0.0000E+00  0.2000E+01
     -6.769  0.0000E+00  0.2000E+01
     -6.722  0.0000E+00  0.2000E+01
     -6.674  0.0000E+00  0.2000E+01
     -6.626  0.0000E+00  0.2000E+01
     -6.579  0.0000E+00  0.2000E+01
     -6.531  0.0000E+00  0.2000E+01
     -6.483  0.0000E+00  0.2000E+01
     -6.436  0.0000E+00  0.2000E+01
     -6.388  0.0000E+00  0.2000E+01
     -6.340  0.0000E+00  0.2000E+01
     -6.293  0.0000E+00  0.2000E+01
     -6.245  0.0000E+00  0.2000E+01
     -6.197  0.0000E+00  0.2000E+01
     -6.150  0.0000E+00  0.2000E+01
     -6.102  0.0000E+00  0.2000E+01
     -6.054  0.0000E+00  0.2000E+01
     -6.007  0.0000E+00  0.2000E+01
     -5.959  0.0000E+00  0.2000E+01
     -5.911  0.0000E+00  0.2000E+01
     -5.864  0.0000E+00  0.2000E+01
     -5.816  0.0000E+00  0.2000E+01
     -5.769  0.0000E+00  0.2000E+01
     -5.721  0.0000E+00  0.2000E+01
     -5.673  0.0000E+00  0.2000E+01
     -5.626  0.0000E+00  0.2000E+01
     -5.578  0.0000E+00  0.2000E+01
     -5.530  0.0000E+00  0.2000E+01
     -5.483  0.0000E+00  0.2000E+01
     -5.435  0.0000E+00  0.2000E+01
     -5.387  0.0000E+00  0.2000E+01
     -5.340  0.0000E+00  0.2000E+01
     -5.292  0.0000E+00  0.2000E+01
     -5.244  0.0000E+00  0.2000E+01
     -5.197  0.0000E+00  0.2000E+01
     -5.149  0.0000E+00  0.2000E+01
     -5.101  0.0000E+00  0.2000E+01
     -5.054  0.0000E+00  0.2000E+01
     -5.006  0.0000E+00  0.2000E+01
     -4.958  0.0000E+00  0.2000E+01
     -4.911  0.0000E+00  0.2000E+01
     -4.863  0.0000E+00  0.2000E+01
     -4.815  0.0000E+00  0.2000E+01
     -4.768  0.0000E+00  0.2000E+01
     -4.720  0.0000E+00  0.2000E+01
     -4.672  0.0000E+00  0.2000E+01
     -4.625  0.0000E+00  0.2000E+01
     -4.577  0.0000E+00  0.2000E+01
     -4.529  0.0000E+00  0.2000E+01
     -4.482  0.0000E+00  0.2000E+01
     -4.434  0.0000E+00  0.2000E+01
     -4.386  0.0000E+00  0.2000E+01
     -4.339  0.0000E+00  0.2000E+01
     -4.291  0.0000E+00  0.2000E+01
     -4.243  0.0000E+00  0.2000E+01
     -4.196  0.0000E+00  0.2000E+01
     -4.148  0.0000E+00  0.2000E+01
     -4.101  0.0000E+00  0.2000E+01
     -4.053  0.0000E+00  0.2000E+01
     -4.005  0.0000E+00  0.2000E+01
     -3.958  0.0000E+00  0.2000E+01
     -3.910  0.0000E+00  0.2000E+01
     -3.862  0.0000E+00  0.2000E+01
     -3.815  0.0000E+00  0.2000E+01
     -3.767  0.0000E+00  0.2000E+01
     -3.719  0.0000E+00  0.2000E+01
     -3.672  0.0000E+00  0.2000E+01
     -3.624  0.0000E+00  0.2000E+01
     -3.576  0.0000E+00  0.2000E+01
     -3.529  0.0000E+00  0.2000E+01
     -3.481  0.0000E+00  0.2000E+01
     -3.433  0.0000E+00  0.2000E+01
     -3.386  0.0000E+00  0.2000E+01
     -3.338  0.0000E+00  0.2000E+01
     -3.290  0.0000E+00  0.2000E+01
     -3.243  0.0000E+00  0.2000E+01
     -3.195  0.0000E+00  0.2000E+01
     -3.147  0.0000E+00  0.2000E+01
     -3.100  0.0000E+00  0.2000E+01
     -3.052  0.0000E+00  0.2000E+01
     -3.004  0.0000E+00  0.2000E+01
     -2.957  0.0000E+00  0.2000E+01
     -2.909  0.0000E+00  0.2000E+01
     -2.861  0.0000E+00  0.2000E+01
     -2.814  0.0000E+00  0.2000E+01
     -2.766  0.0000E+00  0.2000E+01
     -2.718  0.0000E+00  0.2000E+01
     -2.671  0.0000E+00  0.2000E+01
     -2.623  0.0000E+00  0.2000E+01
     -2.575  0.0000E+00  0.2000E+01
     -2.528  0.0000E+00  0.2000E+01
     -2.480  0.0000E+00  0.2000E+01
     -2.432  0.0000E+00  0.2000E+01
     -2.385  0.0000E+00  0.2000E+01
     -2.337  0.0000E+00  0.2000E+01
     -2.290  0.0000E+00  0.2000E+01
     -2.242  0.0000E+00  0.2000E+01
     -2.194  0.0000E+00  0.2000E+01
     -2.147  0.0000E+00  0.2000E+01
     -2.099  0.0000E+00  0.2000E+01
     -2.051  0.0000E+00  0.2000E+01
     -2.004  0.0000E+00  0.2000E+01
     -1.956  0.0000E+00  0.2000E+01
     -1.908  0.0000E+00  0.2000E+01
     -1.861  0.0000E+00  0.2000E+01
     -1.813  0.0000E+00  0.2000E+01
     -1.765  0.0000E+00  0.2000E+01
     -1.718  0.0000E+00  0.2000E+01
     -1.670  0.0000E+00  0.2000E+01
     -1.622  0.0000E+00  0.2000E+01
     -1.575  0.0000E+00  0.2000E+01
     -1.527  0.0000E+00  0.2000E+01
     -1.479  0.0000E+00  0.2000E+01
     -1.432  0.0000E+00  0.2000E+01
     -1.384  0.0000E+00  0.2000E+01
     -1.336  0.0000E+00  0.2000E+01
     -1.289  0.2131E-08  0.2000E+01
     -1.241  0.2338E+01  0.2111E+01
     -1.193  0.7708E+00  0.2148E+01
     -1.146  0.0000E+00  0.2148E+01
     -1.098  0.0000E+00  0.2148E+01
     -1.050  0.0000E+00  0.2148E+01
     -1.003  0.0000E+00  0.2148E+01
     -0.955  0.3922E-06  0.2148E+01
     -0.907  0.1129E+02  0.2686E+01
     -0.860  0.1141E+01  0.2741E+01
     -0.812  0.0000E+00  0.2741E+01
     -0.764  0.0000E+00  0.2741E+01
     -0.717  0.0000E+00  0.2741E+01
     -0.669  0.3027E-03  0.2741E+01
     -0.622  0.1239E+02  0.3331E+01
     -0.574  0.4605E-01  0.3333E+01
     -0.526  0.0000E+00  0.3333E+01
     -0.479  0.0000E+00  0.3333E+01
     -0.431  0.0000E+00  0.3333E+01
     -0.383  0.0000E+00  0.3333E+01
     -0.336  0.0000E+00  0.3333E+01
     -0.288  0.2461E-03  0.3333E+01
     -0.240  0.1553E+01  0.3407E+01
     -0.193  0.1320E-02  0.3407E+01
     -0.145  0.1502E+01  0.3479E+01
     -0.097  0.4715E+01  0.3704E+01
     -0.050  0.0000E+00  0.3704E+01
     -0.002  0.0000E+00  0.3704E+01
      0.046  0.0000E+00  0.3704E+01
      0.093  0.0000E+00  0.3704E+01
      0.141  0.0000E+00  0.3704E+01
      0.189  0.0000E+00  0.3704E+01
      0.236  0.4284E-06  0.3704E+01
      0.284  0.5779E+01  0.3979E+01
      0.332  0.1259E+01  0.4039E+01
      0.379  0.7344E+00  0.4074E+01
      0.427  0.8292E-03  0.4074E+01
      0.475  0.6210E+01  0.4370E+01
      0.522  0.6138E-02  0.4370E+01
      0.570  0.6013E+01  0.4657E+01
      0.618  0.2042E+00  0.4667E+01
      0.665  0.0000E+00  0.4667E+01
      0.713  0.3519E-02  0.4667E+01
      0.761  0.1242E+02  0.5259E+01
      0.808  0.6176E-02  0.5259E+01
      0.856  0.0000E+00  0.5259E+01
      0.904  0.0000E+00  0.5259E+01
      0.951  0.0000E+00  0.5259E+01
      0.999  0.0000E+00  0.5259E+01
      1.047  0.7282E-05  0.5259E+01
      1.094  0.1206E+02  0.5834E+01
      1.142  0.3742E+00  0.5852E+01
      1.189  0.2683E+01  0.5980E+01
      1.237  0.4351E+01  0.6187E+01
      1.285  0.2291E+01  0.6296E+01
      1.332  0.0000E+00  0.6296E+01
      1.380  0.0000E+00  0.6296E+01
      1.428  0.0000E+00  0.6296E+01
      1.475  0.0000E+00  0.6296E+01
      1.523  0.0000E+00  0.6296E+01
      1.571  0.0000E+00  0.6296E+01
      1.618  0.1537E-04  0.6296E+01
      1.666  0.6125E+01  0.6588E+01
      1.714  0.9265E-01  0.6593E+01
      1.761  0.0000E+00  0.6593E+01
      1.809  0.7483E-01  0.6596E+01
      1.857  0.1236E+02  0.7185E+01
      1.904  0.1461E-03  0.7185E+01
      1.952  0.0000E+00  0.7185E+01
      2.000  0.0000E+00  0.7185E+01
      2.047  0.0000E+00  0.7185E+01
      2.095  0.0000E+00  0.7185E+01
      2.143  0.0000E+00  0.7185E+01
      2.190  0.0000E+00  0.7185E+01
      2.238  0.0000E+00  0.7185E+01
      2.286  0.0000E+00  0.7185E+01
      2.333  0.0000E+00  0.7185E+01
      2.381  0.0000E+00  0.7185E+01
      2.429  0.0000E+00  0.7185E+01
      2.476  0.0000E+00  0.7185E+01
      2.524  0.0000E+00  0.7185E+01
      2.572  0.0000E+00  0.7185E+01
      2.619  0.0000E+00  0.7185E+01
      2.667  0.0000E+00  0.7185E+01
      2.715  0.0000E+00  0.7185E+01
      2.762  0.0000E+00  0.7185E+01
      2.810  0.0000E+00  0.7185E+01
      2.858  0.1789E-05  0.7185E+01
      2.905  0.6006E+01  0.7471E+01
      2.953  0.1265E+02  0.8074E+01
      3.000  0.3145E+00  0.8089E+01
      3.048  0.1212E+02  0.8667E+01
      3.096  0.0000E+00  0.8667E+01
      3.143  0.0000E+00  0.8667E+01
      3.191  0.0000E+00  0.8667E+01
      3.239  0.1770E-06  0.8667E+01
      3.286  0.1098E+02  0.9190E+01
      3.334  0.1838E+01  0.9277E+01
      3.382  0.2728E+01  0.9407E+01
      3.429  0.0000E+00  0.9407E+01
      3.477  0.0000E+00  0.9407E+01
      3.525  0.0000E+00  0.9407E+01
      3.572  0.0000E+00  0.9407E+01
      3.620  0.0000E+00  0.9407E+01
      3.668  0.1155E-05  0.9407E+01
      3.715  0.2994E+01  0.9550E+01
      3.763  0.1142E+00  0.9556E+01
      3.811  0.2198E+01  0.9660E+01
      3.858  0.4042E+01  0.9853E+01
      3.906  0.3086E+01  0.1000E+02
      3.954  0.2790E-04  0.1000E+02
      4.001  0.0000E+00  0.1000E+02
      4.049  0.0000E+00  0.1000E+02
      4.097  0.0000E+00  0.1000E+02
      4.144  0.0000E+00  0.1000E+02
      4.192  0.0000E+00  0.1000E+02
      4.240  0.0000E+00  0.1000E+02
      4.287  0.0000E+00  0.1000E+02
      4.335  0.0000E+00  0.1000E+02
      4.383  0.0000E+00  0.1000E+02
      4.430  0.0000E+00  0.1000E+02
      4.478  0.0000E+00  0.1000E+02
      4.526  0.0000E+00  0.1000E+02
