    2    2    1    1
  0.6250000E+02  0.5000000E-09  0.5000000E-09  0.5000000E-09  0.5000000E-15
   1.0000000000000000E-004
  CAR 
 H atom ! description                    
      2      6      5

  0.3742002E-15  0.3742002E-15  0.3742002E-15  0.3703704E-01
    1       -9.121891   1.000000
    2       -0.262434   0.000000
    3        0.331163   0.000000
    4        3.342305   0.000000
    5        3.342305   0.000000

  0.3333333E+00  0.3742002E-15  0.3742002E-15  0.7407407E-01
    1       -9.069714   1.000000
    2       -1.245866   0.000000
    3        1.181747   0.000000
    4        3.702685   0.000000
    5        3.875645   0.000000

  0.3742002E-15  0.3333333E+00  0.3742002E-15  0.1481481E+00
    1       -9.092417   1.000000
    2       -0.139967   0.000000
    3        0.452744   0.000000
    4        1.650701   0.000000
    5        3.813315   0.000000

  0.3333333E+00  0.3333333E+00  0.3742002E-15  0.2962963E+00
    1       -9.043015   1.000000
    2       -0.916852   0.000000
    3        0.737288   0.000000
    4        2.924274   0.000000
    5        3.014305   0.000000

  0.3742002E-15  0.3333333E+00  0.3333333E+00  0.1481481E+00
    1       -9.064700   1.000000
    2        0.273587   0.000000
    3        0.556924   0.000000
    4        1.234771   0.000000
    5        2.892855   0.000000

  0.3333333E+00  0.3333333E+00  0.3333333E+00  0.2962963E+00
    1       -9.017274   1.000000
    2       -0.640438   0.000000
    3        1.080883   0.000000
    4        1.826793   0.000000
    5        3.278015   0.000000
