       N       E                     dE             d eps       ncg     rms          rms(c)
DAV:   1    -0.473621364653E+01   -0.47362E+01   -0.16821E+02    60   0.101E+02
DAV:   2    -0.637405903097E+01   -0.16378E+01   -0.16378E+01    65   0.242E+01
DAV:   3    -0.639680196723E+01   -0.22743E-01   -0.22743E-01    95   0.372E+00
DAV:   4    -0.639680964298E+01   -0.76758E-05   -0.76758E-05    60   0.639E-02
DAV:   5    -0.639680967843E+01   -0.35444E-07   -0.35443E-07    90   0.451E-03    0.280E+00
DAV:   6    -0.620638807506E+01    0.19042E+00   -0.94841E-02    60   0.131E+00    0.158E+00
DAV:   7    -0.609274487155E+01    0.11364E+00   -0.24940E-01    70   0.214E+00    0.211E-01
DAV:   8    -0.609667677054E+01   -0.39319E-02   -0.28100E-03    60   0.292E-01    0.135E-01
DAV:   9    -0.609601746214E+01    0.65931E-03   -0.20596E-03    60   0.185E-01    0.198E-02
DAV:  10    -0.609648751152E+01   -0.47005E-03   -0.54392E-05    60   0.495E-02    0.968E-03
DAV:  11    -0.609648889236E+01   -0.13808E-05   -0.24730E-06    60   0.896E-03
   1 F= -.60964889E+01 E0= -.60964889E+01  d E =-.237827E-22
