<?xml version="1.0" encoding="ISO-8859-1"?>
<modeling>
 <generator>
  <i name="program" type="string">vasp </i>
  <i name="version" type="string">5.4.4.18Apr17-6-g9f103f2a35  </i>
  <i name="subversion" type="string">(build Sep 28 2022 22:23:22) complex            parallel </i>
  <i name="platform" type="string">LinuxGNU </i>
  <i name="date" type="string">2022 12 12 </i>
  <i name="time" type="string">17:34:09 </i>
 </generator>
 <incar>
  <i type="string" name="SYSTEM"> H atom ! description</i>
  <i type="string" name="PREC">normal</i>
  <i name="ENCUT">    350.00000000</i>
  <i type="int" name="ISMEAR">     0</i>
  <i name="SIGMA">      0.01000000</i>
  <v type="int" name="KPOINT_BSE">    -1     0     0     0</v>
 </incar>
 <structure name="primitive_cell" >
  <crystal>
   <varray name="basis" >
    <v>       5.00000000       0.00000000       0.00000000 </v>
    <v>       0.00000000       5.00000000       0.00000000 </v>
    <v>       0.00000000       0.00000000       5.00000000 </v>
   </varray>
   <i name="volume">    125.00000000 </i>
   <varray name="rec_basis" >
    <v>       0.20000000       0.00000000       0.00000000 </v>
    <v>       0.00000000       0.20000000       0.00000000 </v>
    <v>       0.00000000       0.00000000       0.20000000 </v>
   </varray>
  </crystal>
  <varray name="positions" >
   <v>       0.00000000       0.00000000       0.00000000 </v>
   <v>       0.20000000       0.00000000       0.00000000 </v>
  </varray>
 </structure>
 <varray name="primitive_index" >
  <v type="int" >        1 </v>
  <v type="int" >        2 </v>
 </varray>
 <kpoints>
  <generation param="Gamma">
   <v type="int" name="divisions">       3        3        3 </v>
   <v name="usershift">      0.00000000       0.00000000       0.00000000 </v>
   <v name="genvec1">      0.33333333       0.00000000       0.00000000 </v>
   <v name="genvec2">      0.00000000       0.33333333       0.00000000 </v>
   <v name="genvec3">      0.00000000       0.00000000       0.33333333 </v>
   <v name="shift">      0.00000000       0.00000000       0.00000000 </v>
  </generation>
  <varray name="kpointlist" >
   <v>       0.00000000       0.00000000       0.00000000 </v>
   <v>       0.33333333       0.00000000       0.00000000 </v>
   <v>       0.00000000       0.33333333       0.00000000 </v>
   <v>       0.33333333       0.33333333       0.00000000 </v>
   <v>       0.00000000       0.33333333       0.33333333 </v>
   <v>       0.33333333       0.33333333       0.33333333 </v>
  </varray>
  <varray name="weights" >
   <v>       0.03703704 </v>
   <v>       0.07407407 </v>
   <v>       0.14814815 </v>
   <v>       0.29629630 </v>
   <v>       0.14814815 </v>
   <v>       0.29629630 </v>
  </varray>
 </kpoints>
 <parameters>
  <separator name="general" >
   <i type="string" name="SYSTEM">H atom ! description</i>
   <i type="logical" name="LCOMPAT"> F  </i>
  </separator>
  <separator name="electronic" >
   <i type="string" name="PREC">normal</i>
   <i name="ENMAX">    350.00000000</i>
   <i name="ENAUG">    400.00000000</i>
   <i name="EDIFF">      0.00010000</i>
   <i type="int" name="IALGO">    38</i>
   <i type="int" name="IWAVPR">    10</i>
   <i type="int" name="NBANDS">     5</i>
   <i name="NELECT">      2.00000000</i>
   <i type="int" name="TURBO">     0</i>
   <i type="int" name="IRESTART">     0</i>
   <i type="int" name="NREBOOT">     0</i>
   <i type="int" name="NMIN">     0</i>
   <i name="EREF">      0.00000000</i>
   <separator name="electronic smearing" >
    <i type="int" name="ISMEAR">     0</i>
    <i name="SIGMA">      0.01000000</i>
    <i name="KSPACING">      0.50000000</i>
    <i type="logical" name="KGAMMA"> T  </i>
   </separator>
   <separator name="electronic projectors" >
    <i type="logical" name="LREAL"> F  </i>
    <v name="ROPT">      0.00000000</v>
    <i type="int" name="LMAXPAW">  -100</i>
    <i type="int" name="LMAXMIX">     2</i>
    <i type="logical" name="NLSPLINE"> F  </i>
   </separator>
   <separator name="electronic startup" >
    <i type="int" name="ISTART">     0</i>
    <i type="int" name="ICHARG">     2</i>
    <i type="int" name="INIWAV">     1</i>
   </separator>
   <separator name="electronic spin" >
    <i type="int" name="ISPIN">     1</i>
    <i type="logical" name="LNONCOLLINEAR"> F  </i>
    <v name="MAGMOM">      1.00000000      1.00000000</v>
    <i name="NUPDOWN">     -1.00000000</i>
    <i type="logical" name="LSORBIT"> F  </i>
    <v name="SAXIS">      0.00000000      0.00000000      1.00000000</v>
    <i type="logical" name="LSPIRAL"> F  </i>
    <v name="QSPIRAL">      0.00000000      0.00000000      0.00000000</v>
    <i type="logical" name="LZEROZ"> F  </i>
   </separator>
   <separator name="electronic exchange-correlation" >
    <i type="logical" name="LASPH"> F  </i>
    <i type="logical" name="LMETAGGA"> F  </i>
   </separator>
   <separator name="electronic convergence" >
    <i type="int" name="NELM">    60</i>
    <i type="int" name="NELMDL">    -5</i>
    <i type="int" name="NELMIN">     2</i>
    <i name="ENINI">    350.00000000</i>
    <separator name="electronic convergence detail" >
     <i type="logical" name="LDIAG"> T  </i>
     <i type="logical" name="LSUBROT"> F  </i>
     <i name="WEIMIN">      0.00000000</i>
     <i name="EBREAK">      0.00000500</i>
     <i name="DEPER">      0.30000000</i>
     <i type="int" name="NRMM">     4</i>
     <i name="TIME">      0.40000000</i>
    </separator>
   </separator>
   <separator name="electronic mixer" >
    <i name="AMIX">      0.40000000</i>
    <i name="BMIX">      1.00000000</i>
    <i name="AMIN">      0.10000000</i>
    <i name="AMIX_MAG">      1.60000000</i>
    <i name="BMIX_MAG">      1.00000000</i>
    <separator name="electronic mixer details" >
     <i type="int" name="IMIX">     4</i>
     <i type="logical" name="MIXFIRST"> F  </i>
     <i type="int" name="MAXMIX">   -45</i>
     <i name="WC">    100.00000000</i>
     <i type="int" name="INIMIX">     1</i>
     <i type="int" name="MIXPRE">     1</i>
     <i type="int" name="MREMOVE">     5</i>
    </separator>
   </separator>
   <separator name="electronic dipolcorrection" >
    <i type="logical" name="LDIPOL"> F  </i>
    <i type="logical" name="LMONO"> F  </i>
    <i type="int" name="IDIPOL">     0</i>
    <i name="EPSILON">      1.00000000</i>
    <v name="DIPOL">   -100.00000000   -100.00000000   -100.00000000</v>
    <i name="EFIELD">      0.00000000</i>
   </separator>
  </separator>
  <separator name="grids" >
   <i type="int" name="NGX">    24</i>
   <i type="int" name="NGY">    24</i>
   <i type="int" name="NGZ">    24</i>
   <i type="int" name="NGXF">    48</i>
   <i type="int" name="NGYF">    48</i>
   <i type="int" name="NGZF">    48</i>
   <i type="logical" name="ADDGRID"> F  </i>
  </separator>
  <separator name="ionic" >
   <i type="int" name="NSW">     0</i>
   <i type="int" name="IBRION">    -1</i>
   <i type="int" name="MDALGO">     0</i>
   <i type="int" name="ISIF">     2</i>
   <i name="PSTRESS">      0.00000000</i>
   <i name="EDIFFG">      0.00100000</i>
   <i type="int" name="NFREE">     0</i>
   <i name="POTIM">      0.50000000</i>
   <i name="SMASS">     -3.00000000</i>
   <i name="SCALEE">      1.00000000</i>
  </separator>
  <separator name="ionic md" >
   <i name="TEBEG">      0.00010000</i>
   <i name="TEEND">      0.00010000</i>
   <i type="int" name="NBLOCK">     1</i>
   <i type="int" name="KBLOCK">     1</i>
   <i type="int" name="NPACO">   256</i>
   <i name="APACO">     16.00000000</i>
  </separator>
  <separator name="symmetry" >
   <i type="int" name="ISYM">     2</i>
   <i name="SYMPREC">      0.00001000</i>
  </separator>
  <separator name="dos" >
   <i type="int" name="LORBIT">     0</i>
   <v name="RWIGS">     -1.00000000</v>
   <i type="int" name="NEDOS">   301</i>
   <i name="EMIN">     10.00000000</i>
   <i name="EMAX">    -10.00000000</i>
   <i name="EFERMI">      0.00000000</i>
  </separator>
  <separator name="writing" >
   <i type="int" name="NWRITE">     2</i>
   <i type="logical" name="LWAVE"> T  </i>
   <i type="logical" name="LDOWNSAMPLE"> F  </i>
   <i type="logical" name="LCHARG"> T  </i>
   <i type="logical" name="LPARD"> F  </i>
   <i type="logical" name="LVTOT"> F  </i>
   <i type="logical" name="LVHAR"> F  </i>
   <i type="logical" name="LELF"> F  </i>
   <i type="logical" name="LOPTICS"> F  </i>
   <v name="STM">      0.00000000      0.00000000      0.00000000      0.00000000      0.00000000      0.00000000      0.00000000</v>
  </separator>
  <separator name="performance" >
   <i type="int" name="NPAR">     1</i>
   <i type="int" name="NSIM">     4</i>
   <i type="int" name="NBLK">    -1</i>
   <i type="logical" name="LPLANE"> T  </i>
   <i type="logical" name="LSCALAPACK"> F  </i>
   <i type="logical" name="LSCAAWARE"> F  </i>
   <i type="logical" name="LSCALU"> F  </i>
   <i type="logical" name="LASYNC"> F  </i>
   <i type="logical" name="LORBITALREAL"> F  </i>
  </separator>
  <separator name="miscellaneous" >
   <i type="int" name="IDIOT">     3</i>
   <i type="int" name="ISPECIAL">     0</i>
   <i type="logical" name="LMUSIC"> F  </i>
   <v name="POMASS">      1.00000000</v>
   <v name="DARWINR">      0.00000000</v>
   <v name="DARWINV">      1.00000000</v>
   <i type="logical" name="LCORR"> T  </i>
  </separator>
  <i type="logical" name="GGA_COMPAT"> T  </i>
  <i type="logical" name="LBERRY"> F  </i>
  <i type="int" name="ICORELEVEL">     0</i>
  <i type="logical" name="LDAU"> F  </i>
  <i type="int" name="I_CONSTRAINED_M">     0</i>
  <separator name="electronic exchange-correlation" >
   <i type="string" name="GGA">--</i>
   <i type="int" name="VOSKOWN">     0</i>
   <i type="logical" name="LHFCALC"> F  </i>
   <i type="string" name="PRECFOCK"></i>
   <i type="logical" name="LSYMGRAD"> F  </i>
   <i type="logical" name="LHFONE"> F  </i>
   <i type="logical" name="LRHFCALC"> F  </i>
   <i type="logical" name="LTHOMAS"> F  </i>
   <i type="logical" name="LMODELHF"> F  </i>
   <i name="ENCUT4O">     -1.00000000</i>
   <i type="int" name="EXXOEP">     0</i>
   <i type="int" name="FOURORBIT">     0</i>
   <i name="AEXX">      0.00000000</i>
   <i name="HFALPHA">      0.00000000</i>
   <i name="MCALPHA">      0.00000000</i>
   <i name="ALDAX">      1.00000000</i>
   <i name="AGGAX">      1.00000000</i>
   <i name="ALDAC">      1.00000000</i>
   <i name="AGGAC">      1.00000000</i>
   <i type="int" name="NKREDX">     1</i>
   <i type="int" name="NKREDY">     1</i>
   <i type="int" name="NKREDZ">     1</i>
   <i type="logical" name="SHIFTRED"> F  </i>
   <i type="logical" name="ODDONLY"> F  </i>
   <i type="logical" name="EVENONLY"> F  </i>
   <i type="int" name="LMAXFOCK">     0</i>
   <i type="int" name="NMAXFOCKAE">     0</i>
   <i type="logical" name="LFOCKAEDFT"> F  </i>
   <i name="HFSCREEN">      0.00000000</i>
   <i name="HFSCREENC">      0.00000000</i>
   <i type="int" name="NBANDSGWLOW">     0</i>
  </separator>
  <separator name="vdW DFT" >
   <i type="logical" name="LUSE_VDW"> F  </i>
   <i name="Zab_VDW">     -0.84910000</i>
   <i name="PARAM1">      0.12340000</i>
   <i name="PARAM2">      1.00000000</i>
   <i name="PARAM3">      0.00000000</i>
  </separator>
  <separator name="model GW" >
   <i type="int" name="MODEL_GW">     0</i>
   <i name="MODEL_EPS0">     37.50000000</i>
   <i name="MODEL_ALPHA">      1.00000000</i>
  </separator>
  <separator name="linear response parameters" >
   <i type="logical" name="LEPSILON"> F  </i>
   <i type="logical" name="LRPA"> F  </i>
   <i type="logical" name="LNABLA"> F  </i>
   <i type="logical" name="LVEL"> F  </i>
   <i type="int" name="KINTER">     0</i>
   <i name="CSHIFT">      0.10000000</i>
   <i name="OMEGAMAX">     -1.00000000</i>
   <i name="DEG_THRESHOLD">      0.00200000</i>
   <i name="RTIME">     -0.10000000</i>
   <i name="WPLASMAI">      0.00000000</i>
   <v name="DFIELD">      0.00000000      0.00000000      0.00000000</v>
   <v name="WPLASMA">      0.00000000      0.00000000      0.00000000      0.00000000      0.00000000      0.00000000      0.00000000      0.00000000      0.00000000</v>
  </separator>
  <separator name="orbital magnetization" >
   <i type="logical" name="NUCIND"> F  </i>
   <v name="MAGPOS">      0.00000000      0.00000000      0.00000000</v>
   <i type="logical" name="LNICSALL"> T  </i>
   <i type="logical" name="ORBITALMAG"> F  </i>
   <i type="logical" name="LMAGBLOCH"> F  </i>
   <i type="logical" name="LCHIMAG"> F  </i>
   <i type="logical" name="LGAUGE"> T  </i>
   <i type="int" name="MAGATOM">     0</i>
   <v name="MAGDIPOL">      0.00000000      0.00000000      0.00000000</v>
   <v name="AVECCONST">      0.00000000      0.00000000      0.00000000</v>
  </separator>
  <separator name="response functions" >
   <i type="logical" name="LADDER"> F  </i>
   <i type="logical" name="LRPAFORCE"> F  </i>
   <i type="logical" name="LFXC"> F  </i>
   <i type="logical" name="LHARTREE"> T  </i>
   <i type="int" name="IBSE">     0</i>
   <v type="int" name="KPOINT">    -1     0     0     0</v>
   <i type="logical" name="LTCTE"> F  </i>
   <i type="logical" name="LTETE"> F  </i>
   <i type="logical" name="LTRIPLET"> F  </i>
   <i type="logical" name="LFXCEPS"> F  </i>
   <i type="logical" name="LFXHEG"> F  </i>
   <i type="int" name="NATURALO">     2</i>
   <i type="logical" name="L2ORDER"> F  </i>
   <i type="logical" name="LMP2LT"> F  </i>
   <i type="logical" name="LUSEW"> F  </i>
   <i name="ENCUTGW">     -2.00000000</i>
   <i name="ENCUTGWSOFT">     -2.00000000</i>
   <i name="ENCUTLF">     -1.00000000</i>
   <i type="int" name="LMAXMP2">    -1</i>
   <i name="SCISSOR">      0.00000000</i>
   <i type="int" name="NOMEGA">     0</i>
   <i type="int" name="NOMEGAR">     0</i>
   <i type="int" name="NBANDSGW">    -1</i>
   <i type="int" name="NBANDSO">    -1</i>
   <i type="int" name="NBANDSV">    -1</i>
   <i type="int" name="NELM">     1</i>
   <i type="int" name="NELMHF">     1</i>
   <i type="int" name="DIM">     3</i>
   <i type="int" name="ANTIRES">     0</i>
   <i name="OMEGAMAX">    -30.00000000</i>
   <i name="OMEGAMIN">    -30.00000000</i>
   <i name="OMEGATL">   -200.00000000</i>
   <i type="int" name="OMEGAGRID">   140</i>
   <i name="CSHIFT">     -0.10000000</i>
   <i type="logical" name="SELFENERGY"> F  </i>
   <i type="logical" name="LSPECTRAL"> F  </i>
   <i type="logical" name="LSPECTRALGW"> F  </i>
   <i type="logical" name="LSINGLES"> F  </i>
   <i type="logical" name="LFERMIGW"> F  </i>
   <i type="logical" name="ODDONLYGW"> F  </i>
   <i type="logical" name="EVENONLYGW"> F  </i>
   <i type="int" name="NKREDLFX">     1</i>
   <i type="int" name="NKREDLFY">     1</i>
   <i type="int" name="NKREDLFZ">     1</i>
   <i type="int" name="MAXMEM">  2800</i>
   <i type="int" name="TELESCOPE">     0</i>
   <i type="int" name="TAUPAR">     1</i>
   <i type="int" name="OMEGAPAR">    -1</i>
   <i name="LAMBDA">      1.00000000</i>
  </separator>
  <separator name="External order field" >
   <i name="OFIELD_KAPPA">      0.00000000</i>
   <v name="OFIELD_K">      0.00000000      0.00000000      0.00000000</v>
   <i name="OFIELD_Q6_NEAR">      0.00000000</i>
   <i name="OFIELD_Q6_FAR">      0.00000000</i>
   <i name="OFIELD_A">      0.00000000</i>
  </separator>
 </parameters>
 <atominfo>
  <atoms>       2 </atoms>
  <types>       1 </types>
  <array name="atoms" >
   <dimension dim="1">ion</dimension>
   <field type="string">element</field>
   <field type="int">atomtype</field>
   <set>
    <rc><c>H </c><c>   1</c></rc>
    <rc><c>H </c><c>   1</c></rc>
   </set>
  </array>
  <array name="atomtypes" >
   <dimension dim="1">type</dimension>
   <field type="int">atomspertype</field>
   <field type="string">element</field>
   <field>mass</field>
   <field>valence</field>
   <field type="string">pseudopotential</field>
   <set>
    <rc><c>   2</c><c>H </c><c>      1.00000000</c><c>      1.00000000</c><c>  PAW_PBE H 15Jun2001                   </c></rc>
   </set>
  </array>
 </atominfo>
 <structure name="initialpos" >
  <crystal>
   <varray name="basis" >
    <v>       5.00000000       0.00000000       0.00000000 </v>
    <v>       0.00000000       5.00000000       0.00000000 </v>
    <v>       0.00000000       0.00000000       5.00000000 </v>
   </varray>
   <i name="volume">    125.00000000 </i>
   <varray name="rec_basis" >
    <v>       0.20000000       0.00000000       0.00000000 </v>
    <v>       0.00000000       0.20000000       0.00000000 </v>
    <v>       0.00000000       0.00000000       0.20000000 </v>
   </varray>
  </crystal>
  <varray name="positions" >
   <v>       0.00000000       0.00000000       0.00000000 </v>
   <v>       0.20000000       0.00000000       0.00000000 </v>
  </varray>
 </structure>
 <calculation>
  <scstep>
   <time name="dav">    0.99    0.15</time>
   <time name="total">    1.44    0.21</time>
   <energy>
    <i name="alphaZ">      0.07795736 </i>
    <i name="ewald">     -1.68708163 </i>
    <i name="hartreedc">    -12.10496926 </i>
    <i name="XCdc">      4.19498947 </i>
    <i name="pawpsdc">      4.26805487 </i>
    <i name="pawaedc">     -4.28581044 </i>
    <i name="eentropy">     -0.00000000 </i>
    <i name="bandstr">    -20.13562396 </i>
    <i name="atom">     24.93626995 </i>
    <i name="e_fr_energy">     -4.73621365 </i>
    <i name="e_wo_entrp">     -4.73621365 </i>
    <i name="e_0_energy">     -4.73621365 </i>
   </energy>
  </scstep>
  <scstep>
   <time name="dav">    0.74    0.10</time>
   <time name="total">    0.74    0.10</time>
   <energy>
    <i name="e_fr_energy">     -6.37405903 </i>
    <i name="e_wo_entrp">     -6.37405903 </i>
    <i name="e_0_energy">     -6.37405903 </i>
   </energy>
  </scstep>
  <scstep>
   <time name="dav">    1.51    0.20</time>
   <time name="total">    1.51    0.20</time>
   <energy>
    <i name="e_fr_energy">     -6.39680197 </i>
    <i name="e_wo_entrp">     -6.39680197 </i>
    <i name="e_0_energy">     -6.39680197 </i>
   </energy>
  </scstep>
  <scstep>
   <time name="dav">    1.06    0.15</time>
   <time name="total">    1.06    0.15</time>
   <energy>
    <i name="e_fr_energy">     -6.39680964 </i>
    <i name="e_wo_entrp">     -6.39680964 </i>
    <i name="e_0_energy">     -6.39680964 </i>
   </energy>
  </scstep>
  <scstep>
   <time name="dav">    0.92    0.12</time>
   <time name="total">    1.02    0.13</time>
   <energy>
    <i name="e_fr_energy">     -6.39680968 </i>
    <i name="e_wo_entrp">     -6.39680968 </i>
    <i name="e_0_energy">     -6.39680968 </i>
   </energy>
  </scstep>
  <scstep>
   <time name="dav">    0.64    0.08</time>
   <time name="total">    1.11    0.14</time>
   <energy>
    <i name="e_fr_energy">     -6.20638808 </i>
    <i name="e_wo_entrp">     -6.20638808 </i>
    <i name="e_0_energy">     -6.20638808 </i>
   </energy>
  </scstep>
  <scstep>
   <time name="dav">    1.11    0.15</time>
   <time name="total">    1.57    0.21</time>
   <energy>
    <i name="e_fr_energy">     -6.09274487 </i>
    <i name="e_wo_entrp">     -6.09274487 </i>
    <i name="e_0_energy">     -6.09274487 </i>
   </energy>
  </scstep>
  <scstep>
   <time name="dav">    0.65    0.08</time>
   <time name="total">    1.11    0.14</time>
   <energy>
    <i name="e_fr_energy">     -6.09667677 </i>
    <i name="e_wo_entrp">     -6.09667677 </i>
    <i name="e_0_energy">     -6.09667677 </i>
   </energy>
  </scstep>
  <scstep>
   <time name="dav">    1.05    0.15</time>
   <time name="total">    1.51    0.20</time>
   <energy>
    <i name="e_fr_energy">     -6.09601746 </i>
    <i name="e_wo_entrp">     -6.09601746 </i>
    <i name="e_0_energy">     -6.09601746 </i>
   </energy>
  </scstep>
  <scstep>
   <time name="dav">    0.65    0.08</time>
   <time name="total">    1.12    0.14</time>
   <energy>
    <i name="e_fr_energy">     -6.09648751 </i>
    <i name="e_wo_entrp">     -6.09648751 </i>
    <i name="e_0_energy">     -6.09648751 </i>
   </energy>
  </scstep>
  <scstep>
   <time name="dav">    0.69    0.10</time>
   <time name="total">    1.19    0.17</time>
   <energy>
    <i name="alphaZ">      0.07795736 </i>
    <i name="ewald">     -1.68708163 </i>
    <i name="hartreedc">    -16.07897833 </i>
    <i name="XCdc">      4.78526793 </i>
    <i name="pawpsdc">     13.37593409 </i>
    <i name="pawaedc">    -13.40422143 </i>
    <i name="eentropy">     -0.00000000 </i>
    <i name="bandstr">    -18.10163682 </i>
    <i name="atom">     24.93626995 </i>
    <i name="e_fr_energy">     -6.09648889 </i>
    <i name="e_wo_entrp">     -6.09648889 </i>
    <i name="e_0_energy">     -6.09648889 </i>
   </energy>
  </scstep>
  <structure>
   <crystal>
    <varray name="basis" >
     <v>       5.00000000       0.00000000       0.00000000 </v>
     <v>       0.00000000       5.00000000       0.00000000 </v>
     <v>       0.00000000       0.00000000       5.00000000 </v>
    </varray>
    <i name="volume">    125.00000000 </i>
    <varray name="rec_basis" >
     <v>       0.20000000       0.00000000       0.00000000 </v>
     <v>       0.00000000       0.20000000       0.00000000 </v>
     <v>       0.00000000       0.00000000       0.20000000 </v>
    </varray>
   </crystal>
   <varray name="positions" >
    <v>       0.00000000       0.00000000       0.00000000 </v>
    <v>       0.20000000       0.00000000       0.00000000 </v>
   </varray>
  </structure>
  <varray name="forces" >
   <v>       4.15312581       0.00000000       0.00000000 </v>
   <v>      -4.15312581       0.00000000      -0.00000000 </v>
  </varray>
  <varray name="stress" >
   <v>     -55.35168234       0.00000000       0.00000000 </v>
   <v>      -0.00000000      -2.28796833       0.00000000 </v>
   <v>       0.00000000       0.00000000      -2.28796833 </v>
  </varray>
  <energy>
   <i name="e_fr_energy">     -6.09648889 </i>
   <i name="e_wo_entrp">     -6.09648889 </i>
   <i name="e_0_energy">     -0.00000000 </i>
  </energy>
  <time name="totalsc">   14.16    2.03</time>
  <eigenvalues>
   <array>
    <dimension dim="1">band</dimension>
    <dimension dim="2">kpoint</dimension>
    <dimension dim="3">spin</dimension>
    <field>eigene</field>
    <field>occ</field>
    <set>
     <set comment="spin 1">
      <set comment="kpoint 1">
       <r>   -9.1219    1.0000 </r>
       <r>   -0.2624    0.0000 </r>
       <r>    0.3312    0.0000 </r>
       <r>    3.3423    0.0000 </r>
       <r>    3.3423    0.0000 </r>
      </set>
      <set comment="kpoint 2">
       <r>   -9.0697    1.0000 </r>
       <r>   -1.2459    0.0000 </r>
       <r>    1.1817    0.0000 </r>
       <r>    3.7027    0.0000 </r>
       <r>    3.8756    0.0000 </r>
      </set>
      <set comment="kpoint 3">
       <r>   -9.0924    1.0000 </r>
       <r>   -0.1400    0.0000 </r>
       <r>    0.4527    0.0000 </r>
       <r>    1.6507    0.0000 </r>
       <r>    3.8133    0.0000 </r>
      </set>
      <set comment="kpoint 4">
       <r>   -9.0430    1.0000 </r>
       <r>   -0.9169    0.0000 </r>
       <r>    0.7373    0.0000 </r>
       <r>    2.9243    0.0000 </r>
       <r>    3.0143    0.0000 </r>
      </set>
      <set comment="kpoint 5">
       <r>   -9.0647    1.0000 </r>
       <r>    0.2736    0.0000 </r>
       <r>    0.5569    0.0000 </r>
       <r>    1.2348    0.0000 </r>
       <r>    2.8929    0.0000 </r>
      </set>
      <set comment="kpoint 6">
       <r>   -9.0173    1.0000 </r>
       <r>   -0.6404    0.0000 </r>
       <r>    1.0809    0.0000 </r>
       <r>    1.8268    0.0000 </r>
       <r>    3.2780    0.0000 </r>
      </set>
     </set>
    </set>
   </array>
  </eigenvalues>
  <separator name="orbital magnetization" >
   <v name="MAGDIPOLOUT">      0.00000000      0.00000000      0.00000000</v>
  </separator>
  <dos>
   <i name="efermi">     -8.94967327 </i>
   <total>
    <array>
     <dimension dim="1">gridpoints</dimension>
     <dimension dim="2">spin</dimension>
     <field>energy</field>
     <field>total</field>
     <field>integrated</field>
     <set>
      <set comment="spin 1">
       <r>    -9.7718     0.0000     0.0000 </r>
       <r>    -9.7241     0.0000     0.0000 </r>
       <r>    -9.6765     0.0000     0.0000 </r>
       <r>    -9.6288     0.0000     0.0000 </r>
       <r>    -9.5811     0.0000     0.0000 </r>
       <r>    -9.5335     0.0000     0.0000 </r>
       <r>    -9.4858     0.0000     0.0000 </r>
       <r>    -9.4382     0.0000     0.0000 </r>
       <r>    -9.3905     0.0000     0.0000 </r>
       <r>    -9.3428     0.0000     0.0000 </r>
       <r>    -9.2952     0.0000     0.0000 </r>
       <r>    -9.2475     0.0000     0.0000 </r>
       <r>    -9.1999     0.0000     0.0000 </r>
       <r>    -9.1522     0.0000     0.0000 </r>
       <r>    -9.1046     1.8103     0.0863 </r>
       <r>    -9.0569    14.6462     0.7843 </r>
       <r>    -9.0092    23.9169     1.9241 </r>
       <r>    -8.9616     1.5927     2.0000 </r>
       <r>    -8.9139     0.0000     2.0000 </r>
       <r>    -8.8663     0.0000     2.0000 </r>
       <r>    -8.8186     0.0000     2.0000 </r>
       <r>    -8.7710     0.0000     2.0000 </r>
       <r>    -8.7233     0.0000     2.0000 </r>
       <r>    -8.6756     0.0000     2.0000 </r>
       <r>    -8.6280     0.0000     2.0000 </r>
       <r>    -8.5803     0.0000     2.0000 </r>
       <r>    -8.5327     0.0000     2.0000 </r>
       <r>    -8.4850     0.0000     2.0000 </r>
       <r>    -8.4374     0.0000     2.0000 </r>
       <r>    -8.3897     0.0000     2.0000 </r>
       <r>    -8.3420     0.0000     2.0000 </r>
       <r>    -8.2944     0.0000     2.0000 </r>
       <r>    -8.2467     0.0000     2.0000 </r>
       <r>    -8.1991     0.0000     2.0000 </r>
       <r>    -8.1514     0.0000     2.0000 </r>
       <r>    -8.1038     0.0000     2.0000 </r>
       <r>    -8.0561     0.0000     2.0000 </r>
       <r>    -8.0084     0.0000     2.0000 </r>
       <r>    -7.9608     0.0000     2.0000 </r>
       <r>    -7.9131     0.0000     2.0000 </r>
       <r>    -7.8655     0.0000     2.0000 </r>
       <r>    -7.8178     0.0000     2.0000 </r>
       <r>    -7.7701     0.0000     2.0000 </r>
       <r>    -7.7225     0.0000     2.0000 </r>
       <r>    -7.6748     0.0000     2.0000 </r>
       <r>    -7.6272     0.0000     2.0000 </r>
       <r>    -7.5795     0.0000     2.0000 </r>
       <r>    -7.5319     0.0000     2.0000 </r>
       <r>    -7.4842     0.0000     2.0000 </r>
       <r>    -7.4365     0.0000     2.0000 </r>
       <r>    -7.3889     0.0000     2.0000 </r>
       <r>    -7.3412     0.0000     2.0000 </r>
       <r>    -7.2936     0.0000     2.0000 </r>
       <r>    -7.2459     0.0000     2.0000 </r>
       <r>    -7.1983     0.0000     2.0000 </r>
       <r>    -7.1506     0.0000     2.0000 </r>
       <r>    -7.1029     0.0000     2.0000 </r>
       <r>    -7.0553     0.0000     2.0000 </r>
       <r>    -7.0076     0.0000     2.0000 </r>
       <r>    -6.9600     0.0000     2.0000 </r>
       <r>    -6.9123     0.0000     2.0000 </r>
       <r>    -6.8647     0.0000     2.0000 </r>
       <r>    -6.8170     0.0000     2.0000 </r>
       <r>    -6.7693     0.0000     2.0000 </r>
       <r>    -6.7217     0.0000     2.0000 </r>
       <r>    -6.6740     0.0000     2.0000 </r>
       <r>    -6.6264     0.0000     2.0000 </r>
       <r>    -6.5787     0.0000     2.0000 </r>
       <r>    -6.5310     0.0000     2.0000 </r>
       <r>    -6.4834     0.0000     2.0000 </r>
       <r>    -6.4357     0.0000     2.0000 </r>
       <r>    -6.3881     0.0000     2.0000 </r>
       <r>    -6.3404     0.0000     2.0000 </r>
       <r>    -6.2928     0.0000     2.0000 </r>
       <r>    -6.2451     0.0000     2.0000 </r>
       <r>    -6.1974     0.0000     2.0000 </r>
       <r>    -6.1498     0.0000     2.0000 </r>
       <r>    -6.1021     0.0000     2.0000 </r>
       <r>    -6.0545     0.0000     2.0000 </r>
       <r>    -6.0068     0.0000     2.0000 </r>
       <r>    -5.9592     0.0000     2.0000 </r>
       <r>    -5.9115     0.0000     2.0000 </r>
       <r>    -5.8638     0.0000     2.0000 </r>
       <r>    -5.8162     0.0000     2.0000 </r>
       <r>    -5.7685     0.0000     2.0000 </r>
       <r>    -5.7209     0.0000     2.0000 </r>
       <r>    -5.6732     0.0000     2.0000 </r>
       <r>    -5.6256     0.0000     2.0000 </r>
       <r>    -5.5779     0.0000     2.0000 </r>
       <r>    -5.5302     0.0000     2.0000 </r>
       <r>    -5.4826     0.0000     2.0000 </r>
       <r>    -5.4349     0.0000     2.0000 </r>
       <r>    -5.3873     0.0000     2.0000 </r>
       <r>    -5.3396     0.0000     2.0000 </r>
       <r>    -5.2920     0.0000     2.0000 </r>
       <r>    -5.2443     0.0000     2.0000 </r>
       <r>    -5.1966     0.0000     2.0000 </r>
       <r>    -5.1490     0.0000     2.0000 </r>
       <r>    -5.1013     0.0000     2.0000 </r>
       <r>    -5.0537     0.0000     2.0000 </r>
       <r>    -5.0060     0.0000     2.0000 </r>
       <r>    -4.9583     0.0000     2.0000 </r>
       <r>    -4.9107     0.0000     2.0000 </r>
       <r>    -4.8630     0.0000     2.0000 </r>
       <r>    -4.8154     0.0000     2.0000 </r>
       <r>    -4.7677     0.0000     2.0000 </r>
       <r>    -4.7201     0.0000     2.0000 </r>
       <r>    -4.6724     0.0000     2.0000 </r>
       <r>    -4.6247     0.0000     2.0000 </r>
       <r>    -4.5771     0.0000     2.0000 </r>
       <r>    -4.5294     0.0000     2.0000 </r>
       <r>    -4.4818     0.0000     2.0000 </r>
       <r>    -4.4341     0.0000     2.0000 </r>
       <r>    -4.3865     0.0000     2.0000 </r>
       <r>    -4.3388     0.0000     2.0000 </r>
       <r>    -4.2911     0.0000     2.0000 </r>
       <r>    -4.2435     0.0000     2.0000 </r>
       <r>    -4.1958     0.0000     2.0000 </r>
       <r>    -4.1482     0.0000     2.0000 </r>
       <r>    -4.1005     0.0000     2.0000 </r>
       <r>    -4.0529     0.0000     2.0000 </r>
       <r>    -4.0052     0.0000     2.0000 </r>
       <r>    -3.9575     0.0000     2.0000 </r>
       <r>    -3.9099     0.0000     2.0000 </r>
       <r>    -3.8622     0.0000     2.0000 </r>
       <r>    -3.8146     0.0000     2.0000 </r>
       <r>    -3.7669     0.0000     2.0000 </r>
       <r>    -3.7192     0.0000     2.0000 </r>
       <r>    -3.6716     0.0000     2.0000 </r>
       <r>    -3.6239     0.0000     2.0000 </r>
       <r>    -3.5763     0.0000     2.0000 </r>
       <r>    -3.5286     0.0000     2.0000 </r>
       <r>    -3.4810     0.0000     2.0000 </r>
       <r>    -3.4333     0.0000     2.0000 </r>
       <r>    -3.3856     0.0000     2.0000 </r>
       <r>    -3.3380     0.0000     2.0000 </r>
       <r>    -3.2903     0.0000     2.0000 </r>
       <r>    -3.2427     0.0000     2.0000 </r>
       <r>    -3.1950     0.0000     2.0000 </r>
       <r>    -3.1474     0.0000     2.0000 </r>
       <r>    -3.0997     0.0000     2.0000 </r>
       <r>    -3.0520     0.0000     2.0000 </r>
       <r>    -3.0044     0.0000     2.0000 </r>
       <r>    -2.9567     0.0000     2.0000 </r>
       <r>    -2.9091     0.0000     2.0000 </r>
       <r>    -2.8614     0.0000     2.0000 </r>
       <r>    -2.8138     0.0000     2.0000 </r>
       <r>    -2.7661     0.0000     2.0000 </r>
       <r>    -2.7184     0.0000     2.0000 </r>
       <r>    -2.6708     0.0000     2.0000 </r>
       <r>    -2.6231     0.0000     2.0000 </r>
       <r>    -2.5755     0.0000     2.0000 </r>
       <r>    -2.5278     0.0000     2.0000 </r>
       <r>    -2.4801     0.0000     2.0000 </r>
       <r>    -2.4325     0.0000     2.0000 </r>
       <r>    -2.3848     0.0000     2.0000 </r>
       <r>    -2.3372     0.0000     2.0000 </r>
       <r>    -2.2895     0.0000     2.0000 </r>
       <r>    -2.2419     0.0000     2.0000 </r>
       <r>    -2.1942     0.0000     2.0000 </r>
       <r>    -2.1465     0.0000     2.0000 </r>
       <r>    -2.0989     0.0000     2.0000 </r>
       <r>    -2.0512     0.0000     2.0000 </r>
       <r>    -2.0036     0.0000     2.0000 </r>
       <r>    -1.9559     0.0000     2.0000 </r>
       <r>    -1.9083     0.0000     2.0000 </r>
       <r>    -1.8606     0.0000     2.0000 </r>
       <r>    -1.8129     0.0000     2.0000 </r>
       <r>    -1.7653     0.0000     2.0000 </r>
       <r>    -1.7176     0.0000     2.0000 </r>
       <r>    -1.6700     0.0000     2.0000 </r>
       <r>    -1.6223     0.0000     2.0000 </r>
       <r>    -1.5747     0.0000     2.0000 </r>
       <r>    -1.5270     0.0000     2.0000 </r>
       <r>    -1.4793     0.0000     2.0000 </r>
       <r>    -1.4317     0.0000     2.0000 </r>
       <r>    -1.3840     0.0000     2.0000 </r>
       <r>    -1.3364     0.0000     2.0000 </r>
       <r>    -1.2887     0.0000     2.0000 </r>
       <r>    -1.2411     2.3378     2.1114 </r>
       <r>    -1.1934     0.7708     2.1481 </r>
       <r>    -1.1457     0.0000     2.1481 </r>
       <r>    -1.0981     0.0000     2.1481 </r>
       <r>    -1.0504     0.0000     2.1481 </r>
       <r>    -1.0028     0.0000     2.1481 </r>
       <r>    -0.9551     0.0000     2.1481 </r>
       <r>    -0.9074    11.2933     2.6864 </r>
       <r>    -0.8598     1.1411     2.7407 </r>
       <r>    -0.8121     0.0000     2.7407 </r>
       <r>    -0.7645     0.0000     2.7407 </r>
       <r>    -0.7168     0.0000     2.7407 </r>
       <r>    -0.6692     0.0003     2.7408 </r>
       <r>    -0.6215    12.3880     3.3311 </r>
       <r>    -0.5738     0.0461     3.3333 </r>
       <r>    -0.5262     0.0000     3.3333 </r>
       <r>    -0.4785     0.0000     3.3333 </r>
       <r>    -0.4309     0.0000     3.3333 </r>
       <r>    -0.3832     0.0000     3.3333 </r>
       <r>    -0.3356     0.0000     3.3333 </r>
       <r>    -0.2879     0.0002     3.3333 </r>
       <r>    -0.2402     1.5527     3.4073 </r>
       <r>    -0.1926     0.0013     3.4074 </r>
       <r>    -0.1449     1.5019     3.4790 </r>
       <r>    -0.0973     4.7153     3.7037 </r>
       <r>    -0.0496     0.0000     3.7037 </r>
       <r>    -0.0020     0.0000     3.7037 </r>
       <r>     0.0457     0.0000     3.7037 </r>
       <r>     0.0934     0.0000     3.7037 </r>
       <r>     0.1410     0.0000     3.7037 </r>
       <r>     0.1887     0.0000     3.7037 </r>
       <r>     0.2363     0.0000     3.7037 </r>
       <r>     0.2840     5.7785     3.9791 </r>
       <r>     0.3317     1.2585     4.0391 </r>
       <r>     0.3793     0.7344     4.0741 </r>
       <r>     0.4270     0.0008     4.0741 </r>
       <r>     0.4746     6.2102     4.3701 </r>
       <r>     0.5223     0.0061     4.3704 </r>
       <r>     0.5699     6.0130     4.6569 </r>
       <r>     0.6176     0.2042     4.6667 </r>
       <r>     0.6653     0.0000     4.6667 </r>
       <r>     0.7129     0.0035     4.6668 </r>
       <r>     0.7606    12.4247     5.2590 </r>
       <r>     0.8082     0.0062     5.2593 </r>
       <r>     0.8559     0.0000     5.2593 </r>
       <r>     0.9035     0.0000     5.2593 </r>
       <r>     0.9512     0.0000     5.2593 </r>
       <r>     0.9989     0.0000     5.2593 </r>
       <r>     1.0465     0.0000     5.2593 </r>
       <r>     1.0942    12.0601     5.8340 </r>
       <r>     1.1418     0.3742     5.8519 </r>
       <r>     1.1895     2.6833     5.9797 </r>
       <r>     1.2371     4.3515     6.1871 </r>
       <r>     1.2848     2.2910     6.2963 </r>
       <r>     1.3325     0.0000     6.2963 </r>
       <r>     1.3801     0.0000     6.2963 </r>
       <r>     1.4278     0.0000     6.2963 </r>
       <r>     1.4754     0.0000     6.2963 </r>
       <r>     1.5231     0.0000     6.2963 </r>
       <r>     1.5707     0.0000     6.2963 </r>
       <r>     1.6184     0.0000     6.2963 </r>
       <r>     1.6661     6.1245     6.5882 </r>
       <r>     1.7137     0.0926     6.5926 </r>
       <r>     1.7614     0.0000     6.5926 </r>
       <r>     1.8090     0.0748     6.5962 </r>
       <r>     1.8567    12.3594     7.1852 </r>
       <r>     1.9044     0.0001     7.1852 </r>
       <r>     1.9520     0.0000     7.1852 </r>
       <r>     1.9997     0.0000     7.1852 </r>
       <r>     2.0473     0.0000     7.1852 </r>
       <r>     2.0950     0.0000     7.1852 </r>
       <r>     2.1426     0.0000     7.1852 </r>
       <r>     2.1903     0.0000     7.1852 </r>
       <r>     2.2380     0.0000     7.1852 </r>
       <r>     2.2856     0.0000     7.1852 </r>
       <r>     2.3333     0.0000     7.1852 </r>
       <r>     2.3809     0.0000     7.1852 </r>
       <r>     2.4286     0.0000     7.1852 </r>
       <r>     2.4762     0.0000     7.1852 </r>
       <r>     2.5239     0.0000     7.1852 </r>
       <r>     2.5716     0.0000     7.1852 </r>
       <r>     2.6192     0.0000     7.1852 </r>
       <r>     2.6669     0.0000     7.1852 </r>
       <r>     2.7145     0.0000     7.1852 </r>
       <r>     2.7622     0.0000     7.1852 </r>
       <r>     2.8098     0.0000     7.1852 </r>
       <r>     2.8575     0.0000     7.1852 </r>
       <r>     2.9052     6.0057     7.4714 </r>
       <r>     2.9528    12.6455     8.0741 </r>
       <r>     3.0005     0.3145     8.0890 </r>
       <r>     3.0481    12.1202     8.6667 </r>
       <r>     3.0958     0.0000     8.6667 </r>
       <r>     3.1435     0.0000     8.6667 </r>
       <r>     3.1911     0.0000     8.6667 </r>
       <r>     3.2388     0.0000     8.6667 </r>
       <r>     3.2864    10.9772     9.1898 </r>
       <r>     3.3341     1.8377     9.2774 </r>
       <r>     3.3817     2.7281     9.4074 </r>
       <r>     3.4294     0.0000     9.4074 </r>
       <r>     3.4771     0.0000     9.4074 </r>
       <r>     3.5247     0.0000     9.4074 </r>
       <r>     3.5724     0.0000     9.4074 </r>
       <r>     3.6200     0.0000     9.4074 </r>
       <r>     3.6677     0.0000     9.4074 </r>
       <r>     3.7153     2.9944     9.5501 </r>
       <r>     3.7630     0.1142     9.5556 </r>
       <r>     3.8107     2.1978     9.6603 </r>
       <r>     3.8583     4.0415     9.8529 </r>
       <r>     3.9060     3.0864    10.0000 </r>
       <r>     3.9536     0.0000    10.0000 </r>
       <r>     4.0013     0.0000    10.0000 </r>
       <r>     4.0489     0.0000    10.0000 </r>
       <r>     4.0966     0.0000    10.0000 </r>
       <r>     4.1443     0.0000    10.0000 </r>
       <r>     4.1919     0.0000    10.0000 </r>
       <r>     4.2396     0.0000    10.0000 </r>
       <r>     4.2872     0.0000    10.0000 </r>
       <r>     4.3349     0.0000    10.0000 </r>
       <r>     4.3825     0.0000    10.0000 </r>
       <r>     4.4302     0.0000    10.0000 </r>
       <r>     4.4779     0.0000    10.0000 </r>
       <r>     4.5255     0.0000    10.0000 </r>
      </set>
     </set>
    </array>
   </total>
  </dos>
 </calculation>
 <structure name="finalpos" >
  <crystal>
   <varray name="basis" >
    <v>       5.00000000       0.00000000       0.00000000 </v>
    <v>       0.00000000       5.00000000       0.00000000 </v>
    <v>       0.00000000       0.00000000       5.00000000 </v>
   </varray>
   <i name="volume">    125.00000000 </i>
   <varray name="rec_basis" >
    <v>       0.20000000       0.00000000       0.00000000 </v>
    <v>       0.00000000       0.20000000       0.00000000 </v>
    <v>       0.00000000       0.00000000       0.20000000 </v>
   </varray>
  </crystal>
  <varray name="positions" >
   <v>       0.00000000       0.00000000       0.00000000 </v>
   <v>       0.20000000       0.00000000       0.00000000 </v>
  </varray>
 </structure>
</modeling>
