H atom ! description                    
           1
     5.000000    0.000000    0.000000
     0.000000    5.000000    0.000000
     0.000000    0.000000    5.000000
   H 
   2
Direct configuration=     1
   0.00000000  0.00000000  0.00000000
   0.20000000  0.00000000  0.00000000
