       3
 Particles+Wannier centers. Iteration:1_0
  H         0.0000000000        0.0000000000        0.0000000000
  H         0.7500000000        0.0000000000        0.0000000000
  X         0.3749999898        0.0000000000        0.0000000000
