unknown system                          
   1.0000000000000000     
     3.380942    0.000000    0.000000
     0.000000    3.380942    0.000000
     0.000000    0.000000    4.120540
   H 
     4
Direct
  0.000000  0.000000  0.908965
  0.000000  0.000000  0.091035
  0.500000  0.500000  0.408965
  0.500000  0.500000  0.591035

   28   28   32
  85.818      79.277      63.086      44.278      28.098      16.830      10.029      6.1501      3.9065      2.5366    
  1.6160     0.96965     0.59217     0.45790     0.44023     0.45790     0.59217     0.96965      1.6160      2.5366    
  3.9065      6.1501      10.029      16.830      28.098      44.278      63.086      79.277      79.277      73.360    
  58.653      41.400      26.442      15.979      9.6193      5.9526      3.8040      2.4748      1.5761     0.94785    
 0.58275     0.45207     0.43415     0.45207     0.58275     0.94785      1.5761      2.4748      3.8040      5.9526    
  9.6193      15.979      26.442      41.400      58.653      73.360      63.086      58.653      47.477      34.001    
  22.157      13.753      8.5265      5.4140      3.5168      2.2986      1.4626     0.88600     0.55586     0.43562    
 0.41726     0.43562     0.55586     0.88600      1.4626      2.2986      3.5168      5.4140      8.5265      13.753    
  22.157      34.001      47.477      58.653      44.278      41.400      34.001      24.925      16.818      10.909    
  7.0779      4.6638      3.0957      2.0336      1.2928     0.79393     0.51525     0.41123     0.39302     0.41123    
 0.51525     0.79393      1.2928      2.0336      3.0957      4.6638      7.0779      10.909      16.818      24.925    
  34.001      41.400      28.098      26.442      22.157      16.818      11.917      8.1840      5.6022      3.8399    
  2.6011      1.7146      1.0913     0.68563     0.46621     0.38215     0.36539     0.38215     0.46621     0.68563    
  1.0913      1.7146      2.6011      3.8399      5.6022      8.1840      11.917      16.818      22.157      26.442    
  16.830      15.979      13.753      10.909      8.1840      5.9671      4.2935      3.0386      2.0873      1.3796    
 0.88524     0.57603     0.41457     0.35133     0.33734     0.35133     0.41457     0.57603     0.88524      1.3796    
  2.0873      3.0386      4.2935      5.9671      8.1840      10.909      13.753      15.979      10.029      9.6193    
  8.5265      7.0779      5.6022      4.2935      3.2021      2.3102      1.5991      1.0641     0.69794     0.47755    
 0.36567     0.32089     0.31021     0.32089     0.36567     0.47755     0.69794      1.0641      1.5991      2.3102    
  3.2021      4.2935      5.6022      7.0779      8.5265      9.6193      6.1501      5.9526      5.4140      4.6638    
  3.8399      3.0386      2.3102      1.6815      1.1727     0.79551     0.54465     0.39760     0.32320     0.29213    
 0.28415     0.29213     0.32320     0.39760     0.54465     0.79551      1.1727      1.6815      2.3102      3.0386    
  3.8399      4.6638      5.4140      5.9526      3.9065      3.8040      3.5168      3.0957      2.6011      2.0873    
  1.5991      1.1727     0.83319     0.58889     0.43053     0.33772     0.28845     0.26560     0.25907     0.26560    
 0.28845     0.33772     0.43053     0.58889     0.83319      1.1727      1.5991      2.0873      2.6011      3.0957    
  3.5168      3.8040      2.5366      2.4748      2.2986      2.0336      1.7146      1.3796      1.0641     0.79551    
 0.58889     0.44464     0.35170     0.29460     0.26033     0.24149     0.23537     0.24149     0.26033     0.29460    
 0.35170     0.44464     0.58889     0.79551      1.0641      1.3796      1.7146      2.0336      2.2986      2.4748    
  1.6160      1.5761      1.4626      1.2928      1.0913     0.88524     0.69794     0.54465     0.43053     0.35170    
 0.29896     0.26265     0.23673     0.22001     0.21408     0.22001     0.23673     0.26265     0.29896     0.35170    
 0.43053     0.54465     0.69794     0.88524      1.0913      1.2928      1.4626      1.5761     0.96965     0.94785    
 0.88600     0.79393     0.68563     0.57603     0.47755     0.39760     0.33772     0.29460     0.26265     0.23708    
 0.21624     0.20173     0.19644     0.20173     0.21624     0.23708     0.26265     0.29460     0.33772     0.39760    
 0.47755     0.57603     0.68563     0.79393     0.88600     0.94785     0.59217     0.58275     0.55586     0.51525    
 0.46621     0.41457     0.36567     0.32320     0.28845     0.26033     0.23673     0.21624     0.19924     0.18761    
 0.18344     0.18761     0.19924     0.21624     0.23673     0.26033     0.28845     0.32320     0.36567     0.41457    
 0.46621     0.51525     0.55586     0.58275     0.45790     0.45207     0.43562     0.41123     0.38215     0.35133    
 0.32089     0.29213     0.26560     0.24149     0.22001     0.20173     0.18761     0.17865     0.17558     0.17865    
 0.18761     0.20173     0.22001     0.24149     0.26560     0.29213     0.32089     0.35133     0.38215     0.41123    
 0.43562     0.45207     0.44023     0.43415     0.41726     0.39302     0.36539     0.33734     0.31021     0.28415    
 0.25907     0.23537     0.21408     0.19644     0.18344     0.17558     0.17296     0.17558     0.18344     0.19644    
 0.21408     0.23537     0.25907     0.28415     0.31021     0.33734     0.36539     0.39302     0.41726     0.43415    
 0.45790     0.45207     0.43562     0.41123     0.38215     0.35133     0.32089     0.29213     0.26560     0.24149    
 0.22001     0.20173     0.18761     0.17865     0.17558     0.17865     0.18761     0.20173     0.22001     0.24149    
 0.26560     0.29213     0.32089     0.35133     0.38215     0.41123     0.43562     0.45207     0.59217     0.58275    
 0.55586     0.51525     0.46621     0.41457     0.36567     0.32320     0.28845     0.26033     0.23673     0.21624    
 0.19924     0.18761     0.18344     0.18761     0.19924     0.21624     0.23673     0.26033     0.28845     0.32320    
 0.36567     0.41457     0.46621     0.51525     0.55586     0.58275     0.96965     0.94785     0.88600     0.79393    
 0.68563     0.57603     0.47755     0.39760     0.33772     0.29460     0.26265     0.23708     0.21624     0.20173    
 0.19644     0.20173     0.21624     0.23708     0.26265     0.29460     0.33772     0.39760     0.47755     0.57603    
 0.68563     0.79393     0.88600     0.94785      1.6160      1.5761      1.4626      1.2928      1.0913     0.88524    
 0.69794     0.54465     0.43053     0.35170     0.29896     0.26265     0.23673     0.22001     0.21408     0.22001    
 0.23673     0.26265     0.29896     0.35170     0.43053     0.54465     0.69794     0.88524      1.0913      1.2928    
  1.4626      1.5761      2.5366      2.4748      2.2986      2.0336      1.7146      1.3796      1.0641     0.79551    
 0.58889     0.44464     0.35170     0.29460     0.26033     0.24149     0.23537     0.24149     0.26033     0.29460    
 0.35170     0.44464     0.58889     0.79551      1.0641      1.3796      1.7146      2.0336      2.2986      2.4748    
  3.9065      3.8040      3.5168      3.0957      2.6011      2.0873      1.5991      1.1727     0.83319     0.58889    
 0.43053     0.33772     0.28845     0.26560     0.25907     0.26560     0.28845     0.33772     0.43053     0.58889    
 0.83319      1.1727      1.5991      2.0873      2.6011      3.0957      3.5168      3.8040      6.1501      5.9526    
  5.4140      4.6638      3.8399      3.0386      2.3102      1.6815      1.1727     0.79551     0.54465     0.39760    
 0.32320     0.29213     0.28415     0.29213     0.32320     0.39760     0.54465     0.79551      1.1727      1.6815    
  2.3102      3.0386      3.8399      4.6638      5.4140      5.9526      10.029      9.6193      8.5265      7.0779    
  5.6022      4.2935      3.2021      2.3102      1.5991      1.0641     0.69794     0.47755     0.36567     0.32089    
 0.31021     0.32089     0.36567     0.47755     0.69794      1.0641      1.5991      2.3102      3.2021      4.2935    
  5.6022      7.0779      8.5265      9.6193      16.830      15.979      13.753      10.909      8.1840      5.9671    
  4.2935      3.0386      2.0873      1.3796     0.88524     0.57603     0.41457     0.35133     0.33734     0.35133    
 0.41457     0.57603     0.88524      1.3796      2.0873      3.0386      4.2935      5.9671      8.1840      10.909    
  13.753      15.979      28.098      26.442      22.157      16.818      11.917      8.1840      5.6022      3.8399    
  2.6011      1.7146      1.0913     0.68563     0.46621     0.38215     0.36539     0.38215     0.46621     0.68563    
  1.0913      1.7146      2.6011      3.8399      5.6022      8.1840      11.917      16.818      22.157      26.442    
  44.278      41.400      34.001      24.925      16.818      10.909      7.0779      4.6638      3.0957      2.0336    
  1.2928     0.79393     0.51525     0.41123     0.39302     0.41123     0.51525     0.79393      1.2928      2.0336    
  3.0957      4.6638      7.0779      10.909      16.818      24.925      34.001      41.400      63.086      58.653    
  47.477      34.001      22.157      13.753      8.5265      5.4140      3.5168      2.2986      1.4626     0.88600    
 0.55586     0.43562     0.41726     0.43562     0.55586     0.88600      1.4626      2.2986      3.5168      5.4140    
  8.5265      13.753      22.157      34.001      47.477      58.653      79.277      73.360      58.653      41.400    
  26.442      15.979      9.6193      5.9526      3.8040      2.4748      1.5761     0.94785     0.58275     0.45207    
 0.43415     0.45207     0.58275     0.94785      1.5761      2.4748      3.8040      5.9526      9.6193      15.979    
  26.442      41.400      58.653      73.360      87.032      80.060      62.927      43.536      27.578      16.536    
  9.8547      6.0360      3.8268      2.4806      1.5800     0.95105     0.58460     0.45387     0.43636     0.45387    
 0.58460     0.95105      1.5800      2.4806      3.8268      6.0360      9.8547      16.536      27.578      43.536    
  62.927      80.060      80.060      73.772      58.287      40.655      25.957      15.702      9.4513      5.8416    
  3.7261      2.4202      1.5413     0.92996     0.57551     0.44824     0.43050     0.44824     0.57551     0.92996    
  1.5413      2.4202      3.7261      5.8416      9.4513      15.702      25.957      40.655      58.287      73.772    
  62.927      58.287      46.768      33.354      21.760      13.516      8.3763      5.3113      3.4439      2.2481    
  1.4311     0.87007     0.54947     0.43232     0.41418     0.43232     0.54947     0.87007      1.4311      2.2481    
  3.4439      5.3113      8.3763      13.516      21.760      33.354      46.768      58.287      43.536      40.655    
  33.354      24.471      16.526      10.722      6.9505      4.5728      3.0305      1.9892      1.2661     0.78080    
 0.51000     0.40856     0.39061     0.40856     0.51000     0.78080      1.2661      1.9892      3.0305      4.5728    
  6.9505      10.722      16.526      24.471      33.354      40.655      27.578      25.957      21.760      16.526    
  11.713      8.0407      5.4974      3.7622      2.5454      1.6780      1.0703     0.67567     0.46222     0.38013    
 0.36363     0.38013     0.46222     0.67567      1.0703      1.6780      2.5454      3.7622      5.4974      8.0407    
  11.713      16.526      21.760      25.957      16.536      15.702      13.516      10.722      8.0407      5.8572    
  4.2087      2.9748      2.0425      1.3515     0.87008     0.56922     0.41192     0.35005     0.33628     0.35005    
 0.41192     0.56922     0.87008      1.3515      2.0425      2.9748      4.2087      5.8572      8.0407      10.722    
  13.516      15.702      9.8547      9.4513      8.3763      6.9505      5.4974      4.2087      3.1354      2.2608    
  1.5658      1.0445     0.68823     0.47374     0.36459     0.32071     0.31019     0.32071     0.36459     0.47374    
 0.68823      1.0445      1.5658      2.2608      3.1354      4.2087      5.4974      6.9505      8.3763      9.4513    
  6.0360      5.8416      5.3113      4.5728      3.7622      2.9748      2.2608      1.6463      1.1504     0.78353    
 0.53971     0.39668     0.32415     0.29375     0.28592     0.29375     0.32415     0.39668     0.53971     0.78353    
  1.1504      1.6463      2.2608      2.9748      3.7622      4.5728      5.3113      5.8416      3.8268      3.7261    
  3.4439      3.0305      2.5454      2.0425      1.5658      1.1504     0.82032     0.58318     0.42967     0.33981    
 0.29218     0.27013     0.26384     0.27013     0.29218     0.33981     0.42967     0.58318     0.82032      1.1504    
  1.5658      2.0425      2.5454      3.0305      3.4439      3.7261      2.4806      2.4202      2.2481      1.9892    
  1.6780      1.3515      1.0445     0.78353     0.58318     0.44376     0.35446     0.30013     0.26792     0.25041    
 0.24476     0.25041     0.26792     0.30013     0.35446     0.44376     0.58318     0.78353      1.0445      1.3515    
  1.6780      1.9892      2.2481      2.4202      1.5800      1.5413      1.4311      1.2661      1.0703     0.87008    
 0.68823     0.53971     0.42967     0.35446     0.30517     0.27224     0.24939     0.23489     0.22979     0.23489    
 0.24939     0.27224     0.30517     0.35446     0.42967     0.53971     0.68823     0.87008      1.0703      1.2661    
  1.4311      1.5413     0.95105     0.92996     0.87007     0.78080     0.67567     0.56922     0.47374     0.39668    
 0.33981     0.30013     0.27224     0.25125     0.23486     0.22369     0.21964     0.22369     0.23486     0.25125    
 0.27224     0.30013     0.33981     0.39668     0.47374     0.56922     0.67567     0.78080     0.87007     0.92996    
 0.58460     0.57551     0.54947     0.51000     0.46222     0.41192     0.36459     0.32415     0.29218     0.26792    
 0.24939     0.23486     0.22374     0.21651     0.21398     0.21651     0.22374     0.23486     0.24939     0.26792    
 0.29218     0.32415     0.36459     0.41192     0.46222     0.51000     0.54947     0.57551     0.45387     0.44824    
 0.43232     0.40856     0.38013     0.35005     0.32071     0.29375     0.27013     0.25041     0.23489     0.22369    
 0.21651     0.21272     0.21156     0.21272     0.21651     0.22369     0.23489     0.25041     0.27013     0.29375    
 0.32071     0.35005     0.38013     0.40856     0.43232     0.44824     0.43636     0.43050     0.41418     0.39061    
 0.36363     0.33628     0.31019     0.28592     0.26384     0.24476     0.22979     0.21964     0.21398     0.21156    
 0.21096     0.21156     0.21398     0.21964     0.22979     0.24476     0.26384     0.28592     0.31019     0.33628    
 0.36363     0.39061     0.41418     0.43050     0.45387     0.44824     0.43232     0.40856     0.38013     0.35005    
 0.32071     0.29375     0.27013     0.25041     0.23489     0.22369     0.21651     0.21272     0.21156     0.21272    
 0.21651     0.22369     0.23489     0.25041     0.27013     0.29375     0.32071     0.35005     0.38013     0.40856    
 0.43232     0.44824     0.58460     0.57551     0.54947     0.51000     0.46222     0.41192     0.36459     0.32415    
 0.29218     0.26792     0.24939     0.23486     0.22374     0.21651     0.21398     0.21651     0.22374     0.23486    
 0.24939     0.26792     0.29218     0.32415     0.36459     0.41192     0.46222     0.51000     0.54947     0.57551    
 0.95105     0.92996     0.87007     0.78080     0.67567     0.56922     0.47374     0.39668     0.33981     0.30013    
 0.27224     0.25125     0.23486     0.22369     0.21964     0.22369     0.23486     0.25125     0.27224     0.30013    
 0.33981     0.39668     0.47374     0.56922     0.67567     0.78080     0.87007     0.92996      1.5800      1.5413    
  1.4311      1.2661      1.0703     0.87008     0.68823     0.53971     0.42967     0.35446     0.30517     0.27224    
 0.24939     0.23489     0.22979     0.23489     0.24939     0.27224     0.30517     0.35446     0.42967     0.53971    
 0.68823     0.87008      1.0703      1.2661      1.4311      1.5413      2.4806      2.4202      2.2481      1.9892    
  1.6780      1.3515      1.0445     0.78353     0.58318     0.44376     0.35446     0.30013     0.26792     0.25041    
 0.24476     0.25041     0.26792     0.30013     0.35446     0.44376     0.58318     0.78353      1.0445      1.3515    
  1.6780      1.9892      2.2481      2.4202      3.8268      3.7261      3.4439      3.0305      2.5454      2.0425    
  1.5658      1.1504     0.82032     0.58318     0.42967     0.33981     0.29218     0.27013     0.26384     0.27013    
 0.29218     0.33981     0.42967     0.58318     0.82032      1.1504      1.5658      2.0425      2.5454      3.0305    
  3.4439      3.7261      6.0360      5.8416      5.3113      4.5728      3.7622      2.9748      2.2608      1.6463    
  1.1504     0.78353     0.53971     0.39668     0.32415     0.29375     0.28592     0.29375     0.32415     0.39668    
 0.53971     0.78353      1.1504      1.6463      2.2608      2.9748      3.7622      4.5728      5.3113      5.8416    
  9.8547      9.4513      8.3763      6.9505      5.4974      4.2087      3.1354      2.2608      1.5658      1.0445    
 0.68823     0.47374     0.36459     0.32071     0.31019     0.32071     0.36459     0.47374     0.68823      1.0445    
  1.5658      2.2608      3.1354      4.2087      5.4974      6.9505      8.3763      9.4513      16.536      15.702    
  13.516      10.722      8.0407      5.8572      4.2087      2.9748      2.0425      1.3515     0.87008     0.56922    
 0.41192     0.35005     0.33628     0.35005     0.41192     0.56922     0.87008      1.3515      2.0425      2.9748    
  4.2087      5.8572      8.0407      10.722      13.516      15.702      27.578      25.957      21.760      16.526    
  11.713      8.0407      5.4974      3.7622      2.5454      1.6780      1.0703     0.67567     0.46222     0.38013    
 0.36363     0.38013     0.46222     0.67567      1.0703      1.6780      2.5454      3.7622      5.4974      8.0407    
  11.713      16.526      21.760      25.957      43.536      40.655      33.354      24.471      16.526      10.722    
  6.9505      4.5728      3.0305      1.9892      1.2661     0.78080     0.51000     0.40856     0.39061     0.40856    
 0.51000     0.78080      1.2661      1.9892      3.0305      4.5728      6.9505      10.722      16.526      24.471    
  33.354      40.655      62.927      58.287      46.768      33.354      21.760      13.516      8.3763      5.3113    
  3.4439      2.2481      1.4311     0.87007     0.54947     0.43232     0.41418     0.43232     0.54947     0.87007    
  1.4311      2.2481      3.4439      5.3113      8.3763      13.516      21.760      33.354      46.768      58.287    
  80.060      73.772      58.287      40.655      25.957      15.702      9.4513      5.8416      3.7261      2.4202    
  1.5413     0.92996     0.57551     0.44824     0.43050     0.44824     0.57551     0.92996      1.5413      2.4202    
  3.7261      5.8416      9.4513      15.702      25.957      40.655      58.287      73.772      86.894      79.337    
  61.082      41.223      25.860      15.565      9.2900      5.6815      3.5895      2.3189      1.4780     0.89859    
 0.56296     0.44190     0.42479     0.44190     0.56296     0.89859      1.4780      2.3189      3.5895      5.6815    
  9.2900      15.565      25.860      41.223      61.082      79.337      79.337      72.577      56.234      38.372    
  24.351      14.784      8.9099      5.4976      3.4945      2.2627      1.4426     0.87946     0.55471     0.43684    
 0.41954     0.43684     0.55471     0.87946      1.4426      2.2627      3.4945      5.4976      8.9099      14.784    
  24.351      38.372      56.234      72.577      61.082      56.234      44.447      31.298      20.445      12.736    
  7.8963      4.9958      3.2285      2.1026      1.3417     0.82504     0.53102     0.42239     0.40482     0.42239    
 0.53102     0.82504      1.3417      2.1026      3.2285      4.9958      7.8963      12.736      20.445      31.298    
  44.447      56.234      41.223      38.372      31.298      22.969      15.559      10.111      6.5494      4.2969    
  2.8393      1.8622      1.1905     0.74375     0.49494     0.40067     0.38342     0.40067     0.49494     0.74375    
  1.1905      1.8622      2.8393      4.2969      6.5494      10.111      15.559      22.969      31.298      38.372    
  25.860      24.351      20.445      15.559      11.046      7.5827      5.1740      3.5304      2.3841      1.5739    
  1.0113     0.64793     0.45127     0.37473     0.35895     0.37473     0.45127     0.64793      1.0113      1.5739    
  2.3841      3.5304      5.1740      7.5827      11.046      15.559      20.445      24.351      15.565      14.784    
  12.736      10.111      7.5827      5.5159      3.9535      2.7881      1.9145      1.2726     0.82829     0.55124    
 0.40585     0.34795     0.33482     0.34795     0.40585     0.55124     0.82829      1.2726      1.9145      2.7881    
  3.9535      5.5159      7.5827      10.111      12.736      14.784      9.2900      8.9099      7.8963      6.5494    
  5.1740      3.9535      2.9396      2.1188      1.4720     0.99057     0.66293     0.46555     0.36454     0.32346    
 0.31348     0.32346     0.36454     0.46555     0.66293     0.99057      1.4720      2.1188      2.9396      3.9535    
  5.1740      6.5494      7.8963      8.9099      5.6815      5.4976      4.9958      4.2969      3.5304      2.7881    
  2.1188      1.5470      1.0892     0.75239     0.52930     0.39842     0.33184     0.30378     0.29652     0.30378    
 0.33184     0.39842     0.52930     0.75239      1.0892      1.5470      2.1188      2.7881      3.5304      4.2969    
  4.9958      5.4976      3.5895      3.4945      3.2285      2.8393      2.3841      1.9145      1.4720      1.0892    
 0.78688     0.57114     0.43247     0.35203     0.30986     0.29058     0.28513     0.29058     0.30986     0.35203    
 0.43247     0.57114     0.78688      1.0892      1.4720      1.9145      2.3841      2.8393      3.2285      3.4945    
  2.3189      2.2627      2.1026      1.8622      1.5739      1.2726     0.99057     0.75239     0.57114     0.44684    
 0.36920     0.32379     0.29811     0.28468     0.28042     0.28468     0.29811     0.32379     0.36920     0.44684    
 0.57114     0.75239     0.99057      1.2726      1.5739      1.8622      2.1026      2.2627      1.4780      1.4426    
  1.3417      1.1905      1.0113     0.82829     0.66293     0.52930     0.43247     0.36920     0.33102     0.30837    
 0.29428     0.28580     0.28286     0.28580     0.29428     0.30837     0.33102     0.36920     0.43247     0.52930    
 0.66293     0.82829      1.0113      1.1905      1.3417      1.4426     0.89859     0.87946     0.82504     0.74375    
 0.64793     0.55124     0.46555     0.39842     0.35203     0.32379     0.30837     0.30018     0.29533     0.29235    
 0.29127     0.29235     0.29533     0.30018     0.30837     0.32379     0.35203     0.39842     0.46555     0.55124    
 0.64793     0.74375     0.82504     0.87946     0.56296     0.55471     0.53102     0.49494     0.45127     0.40585    
 0.36454     0.33184     0.30986     0.29811     0.29428     0.29533     0.29843     0.30129     0.30242     0.30129    
 0.29843     0.29533     0.29428     0.29811     0.30986     0.33184     0.36454     0.40585     0.45127     0.49494    
 0.53102     0.55471     0.44190     0.43684     0.42239     0.40067     0.37473     0.34795     0.32346     0.30378    
 0.29058     0.28468     0.28580     0.29235     0.30129     0.30885     0.31180     0.30885     0.30129     0.29235    
 0.28580     0.28468     0.29058     0.30378     0.32346     0.34795     0.37473     0.40067     0.42239     0.43684    
 0.42479     0.41954     0.40482     0.38342     0.35895     0.33482     0.31348     0.29652     0.28513     0.28042    
 0.28286     0.29127     0.30242     0.31180     0.31545     0.31180     0.30242     0.29127     0.28286     0.28042    
 0.28513     0.29652     0.31348     0.33482     0.35895     0.38342     0.40482     0.41954     0.44190     0.43684    
 0.42239     0.40067     0.37473     0.34795     0.32346     0.30378     0.29058     0.28468     0.28580     0.29235    
 0.30129     0.30885     0.31180     0.30885     0.30129     0.29235     0.28580     0.28468     0.29058     0.30378    
 0.32346     0.34795     0.37473     0.40067     0.42239     0.43684     0.56296     0.55471     0.53102     0.49494    
 0.45127     0.40585     0.36454     0.33184     0.30986     0.29811     0.29428     0.29533     0.29843     0.30129    
 0.30242     0.30129     0.29843     0.29533     0.29428     0.29811     0.30986     0.33184     0.36454     0.40585    
 0.45127     0.49494     0.53102     0.55471     0.89859     0.87946     0.82504     0.74375     0.64793     0.55124    
 0.46555     0.39842     0.35203     0.32379     0.30837     0.30018     0.29533     0.29235     0.29127     0.29235    
 0.29533     0.30018     0.30837     0.32379     0.35203     0.39842     0.46555     0.55124     0.64793     0.74375    
 0.82504     0.87946      1.4780      1.4426      1.3417      1.1905      1.0113     0.82829     0.66293     0.52930    
 0.43247     0.36920     0.33102     0.30837     0.29428     0.28580     0.28286     0.28580     0.29428     0.30837    
 0.33102     0.36920     0.43247     0.52930     0.66293     0.82829      1.0113      1.1905      1.3417      1.4426    
  2.3189      2.2627      2.1026      1.8622      1.5739      1.2726     0.99057     0.75239     0.57114     0.44684    
 0.36920     0.32379     0.29811     0.28468     0.28042     0.28468     0.29811     0.32379     0.36920     0.44684    
 0.57114     0.75239     0.99057      1.2726      1.5739      1.8622      2.1026      2.2627      3.5895      3.4945    
  3.2285      2.8393      2.3841      1.9145      1.4720      1.0892     0.78688     0.57114     0.43247     0.35203    
 0.30986     0.29058     0.28513     0.29058     0.30986     0.35203     0.43247     0.57114     0.78688      1.0892    
  1.4720      1.9145      2.3841      2.8393      3.2285      3.4945      5.6815      5.4976      4.9958      4.2969    
  3.5304      2.7881      2.1188      1.5470      1.0892     0.75239     0.52930     0.39842     0.33184     0.30378    
 0.29652     0.30378     0.33184     0.39842     0.52930     0.75239      1.0892      1.5470      2.1188      2.7881    
  3.5304      4.2969      4.9958      5.4976      9.2900      8.9099      7.8963      6.5494      5.1740      3.9535    
  2.9396      2.1188      1.4720     0.99057     0.66293     0.46555     0.36454     0.32346     0.31348     0.32346    
 0.36454     0.46555     0.66293     0.99057      1.4720      2.1188      2.9396      3.9535      5.1740      6.5494    
  7.8963      8.9099      15.565      14.784      12.736      10.111      7.5827      5.5159      3.9535      2.7881    
  1.9145      1.2726     0.82829     0.55124     0.40585     0.34795     0.33482     0.34795     0.40585     0.55124    
 0.82829      1.2726      1.9145      2.7881      3.9535      5.5159      7.5827      10.111      12.736      14.784    
  25.860      24.351      20.445      15.559      11.046      7.5827      5.1740      3.5304      2.3841      1.5739    
  1.0113     0.64793     0.45127     0.37473     0.35895     0.37473     0.45127     0.64793      1.0113      1.5739    
  2.3841      3.5304      5.1740      7.5827      11.046      15.559      20.445      24.351      41.223      38.372    
  31.298      22.969      15.559      10.111      6.5494      4.2969      2.8393      1.8622      1.1905     0.74375    
 0.49494     0.40067     0.38342     0.40067     0.49494     0.74375      1.1905      1.8622      2.8393      4.2969    
  6.5494      10.111      15.559      22.969      31.298      38.372      61.082      56.234      44.447      31.298    
  20.445      12.736      7.8963      4.9958      3.2285      2.1026      1.3417     0.82504     0.53102     0.42239    
 0.40482     0.42239     0.53102     0.82504      1.3417      2.1026      3.2285      4.9958      7.8963      12.736    
  20.445      31.298      44.447      56.234      79.337      72.577      56.234      38.372      24.351      14.784    
  8.9099      5.4976      3.4945      2.2627      1.4426     0.87946     0.55471     0.43684     0.41954     0.43684    
 0.55471     0.87946      1.4426      2.2627      3.4945      5.4976      8.9099      14.784      24.351      38.372    
  56.234      72.577      78.903      71.723      54.560      36.326      22.721      13.788      8.2816      5.0792    
  3.2089      2.0719      1.3267     0.82112     0.53000     0.42263     0.40595     0.42263     0.53000     0.82112    
  1.3267      2.0719      3.2089      5.0792      8.2816      13.788      22.721      36.326      54.560      71.723    
  71.723      65.334      50.056      33.761      21.411      13.106      7.9463      4.9155      3.1243      2.0225    
  1.2961     0.80479     0.52296     0.41836     0.40159     0.41836     0.52296     0.80479      1.2961      2.0225    
  3.1243      4.9155      7.9463      13.106      21.411      33.761      50.056      65.334      54.560      50.056    
  39.240      27.474      18.030      11.316      7.0501      4.4681      2.8871      1.8818      1.2091     0.75838    
 0.50281     0.40627     0.38945     0.40627     0.50281     0.75838      1.2091      1.8818      2.8871      4.4681    
  7.0501      11.316      18.030      27.474      39.240      50.056      36.326      33.761      27.474      20.215    
  13.785      9.0106      5.8553      3.8441      2.5405      1.6709      1.0790     0.68932     0.47247     0.38850    