unknown system                          
   1.0000000000000000     
     3.380942    0.000000    0.000000
     0.000000    3.380942    0.000000
     0.000000    0.000000    4.120540
   H 
     4
Direct
  0.000000  0.000000  0.908965
  0.000000  0.000000  0.091035
  0.500000  0.500000  0.408965
  0.500000  0.500000  0.591035

   28   28   32
 0.85817702073E+02 0.79276978545E+02 0.63085706912E+02 0.44277840403E+02 0.28097695313E+02
 0.16829650388E+02 0.10029483054E+02 0.61501365289E+01 0.39064844274E+01 0.25366403978E+01
 0.16159586746E+01 0.96964903354E+00 0.59216988724E+00 0.45790490913E+00 0.44023316348E+00
 0.45790490913E+00 0.59216988724E+00 0.96964903354E+00 0.16159586746E+01 0.25366403978E+01
 0.39064844274E+01 0.61501365289E+01 0.10029483054E+02 0.16829650388E+02 0.28097695313E+02
 0.44277840403E+02 0.63085706912E+02 0.79276978545E+02 0.79276978545E+02 0.73359740483E+02
 0.58652931754E+02 0.41399630382E+02 0.26442360509E+02 0.15979458172E+02 0.96192633679E+01
 0.59526485013E+01 0.38040093554E+01 0.24747970386E+01 0.15760849583E+01 0.94785311594E+00
 0.58275101596E+00 0.45207378691E+00 0.43414524427E+00 0.45207378691E+00 0.58275101596E+00
 0.94785311594E+00 0.15760849583E+01 0.24747970386E+01 0.38040093554E+01 0.59526485013E+01
 0.96192633679E+01 0.15979458172E+02 0.26442360509E+02 0.41399630382E+02 0.58652931754E+02
 0.73359740483E+02 0.63085706912E+02 0.58652931754E+02 0.47476887873E+02 0.34001000321E+02
 0.22157247026E+02 0.13753259313E+02 0.85265392488E+01 0.54139898536E+01 0.35168238889E+01
 0.22986433143E+01 0.14626108292E+01 0.88599701966E+00 0.55586163763E+00 0.43562335535E+00
 0.41725525891E+00 0.43562335535E+00 0.55586163763E+00 0.88599701966E+00 0.14626108292E+01
 0.22986433143E+01 0.35168238889E+01 0.54139898536E+01 0.85265392488E+01 0.13753259313E+02
 0.22157247026E+02 0.34001000321E+02 0.47476887873E+02 0.58652931754E+02 0.44277840403E+02
 0.41399630382E+02 0.34001000321E+02 0.24924969493E+02 0.16818303701E+02 0.10909248960E+02
 0.70779118123E+01 0.46638135938E+01 0.30957162123E+01 0.20335643447E+01 0.12927653049E+01
 0.79392684688E+00 0.51525237254E+00 0.41122506494E+00 0.39301752054E+00 0.41122506494E+00
 0.51525237254E+00 0.79392684688E+00 0.12927653049E+01 0.20335643447E+01 0.30957162123E+01
 0.46638135938E+01 0.70779118123E+01 0.10909248960E+02 0.16818303701E+02 0.24924969493E+02
 0.34001000321E+02 0.41399630382E+02 0.28097695313E+02 0.26442360509E+02 0.22157247026E+02
 0.16818303701E+02 0.11917376224E+02 0.81840440967E+01 0.56022344835E+01 0.38399360017E+01
 0.26010604998E+01 0.17145666786E+01 0.10913164304E+01 0.68563181069E+00 0.46621228028E+00
 0.38214854057E+00 0.36539347611E+00 0.38214854057E+00 0.46621228028E+00 0.68563181069E+00
 0.10913164304E+01 0.17145666786E+01 0.26010604998E+01 0.38399360017E+01 0.56022344835E+01
 0.81840440967E+01 0.11917376224E+02 0.16818303701E+02 0.22157247026E+02 0.26442360509E+02
 0.16829650388E+02 0.15979458172E+02 0.13753259313E+02 0.10909248960E+02 0.81840440967E+01
 0.59670678893E+01 0.42935197776E+01 0.30386473249E+01 0.20872520815E+01 0.13796149422E+01
 0.88524465041E+00 0.57602838373E+00 0.41457484413E+00 0.35132627127E+00 0.33734397109E+00
 0.35132627127E+00 0.41457484413E+00 0.57602838373E+00 0.88524465041E+00 0.13796149422E+01
 0.20872520815E+01 0.30386473249E+01 0.42935197776E+01 0.59670678893E+01 0.81840440967E+01
 0.10909248960E+02 0.13753259313E+02 0.15979458172E+02 0.10029483054E+02 0.96192633679E+01
 0.85265392488E+01 0.70779118123E+01 0.56022344835E+01 0.42935197776E+01 0.32021135018E+01
 0.23101883833E+01 0.15990552258E+01 0.10640758379E+01 0.69794019957E+00 0.47754692996E+00
 0.36566835963E+00 0.32089291242E+00 0.31021295055E+00 0.32089291242E+00 0.36566835963E+00
 0.47754692996E+00 0.69794019957E+00 0.10640758379E+01 0.15990552258E+01 0.23101883833E+01
 0.32021135018E+01 0.42935197776E+01 0.56022344835E+01 0.70779118123E+01 0.85265392488E+01
 0.96192633679E+01 0.61501365289E+01 0.59526485013E+01 0.54139898536E+01 0.46638135938E+01
 0.38399360017E+01 0.30386473249E+01 0.23101883833E+01 0.16814684382E+01 0.11726986076E+01
 0.79551025079E+00 0.54465138616E+00 0.39759810935E+00 0.32320322302E+00 0.29212597031E+00
 0.28415293770E+00 0.29212597031E+00 0.32320322302E+00 0.39759810935E+00 0.54465138616E+00
 0.79551025079E+00 0.11726986076E+01 0.16814684382E+01 0.23101883833E+01 0.30386473249E+01
 0.38399360017E+01 0.46638135938E+01 0.54139898536E+01 0.59526485013E+01 0.39064844274E+01
 0.38040093554E+01 0.35168238889E+01 0.30957162123E+01 0.26010604998E+01 0.20872520815E+01
 0.15990552258E+01 0.11726986076E+01 0.83319345928E+00 0.58889234917E+00 0.43052695261E+00
 0.33771738833E+00 0.28844575037E+00 0.26559782108E+00 0.25907164983E+00 0.26559782108E+00
 0.28844575037E+00 0.33771738833E+00 0.43052695261E+00 0.58889234917E+00 0.83319345928E+00
 0.11726986076E+01 0.15990552258E+01 0.20872520815E+01 0.26010604998E+01 0.30957162123E+01
 0.35168238889E+01 0.38040093554E+01 0.25366403978E+01 0.24747970386E+01 0.22986433143E+01
 0.20335643447E+01 0.17145666786E+01 0.13796149422E+01 0.10640758379E+01 0.79551025079E+00
 0.58889234917E+00 0.44464032368E+00 0.35170161609E+00 0.29460000359E+00 0.26032789967E+00
 0.24148736772E+00 0.23537275327E+00 0.24148736772E+00 0.26032789967E+00 0.29460000359E+00
 0.35170161609E+00 0.44464032368E+00 0.58889234917E+00 0.79551025079E+00 0.10640758379E+01
 0.13796149422E+01 0.17145666786E+01 0.20335643447E+01 0.22986433143E+01 0.24747970386E+01
 0.16159586746E+01 0.15760849583E+01 0.14626108292E+01 0.12927653049E+01 0.10913164304E+01
 0.88524465041E+00 0.69794019957E+00 0.54465138616E+00 0.43052695261E+00 0.35170161609E+00
 0.29896038353E+00 0.26264700015E+00 0.23672847424E+00 0.22000745590E+00 0.21407953011E+00
 0.22000745590E+00 0.23672847424E+00 0.26264700015E+00 0.29896038353E+00 0.35170161609E+00
 0.43052695261E+00 0.54465138616E+00 0.69794019957E+00 0.88524465041E+00 0.10913164304E+01
 0.12927653049E+01 0.14626108292E+01 0.15760849583E+01 0.96964903354E+00 0.94785311594E+00
 0.88599701966E+00 0.79392684688E+00 0.68563181069E+00 0.57602838373E+00 0.47754692996E+00
 0.39759810935E+00 0.33771738833E+00 0.29460000359E+00 0.26264700015E+00 0.23708235681E+00
 0.21623819874E+00 0.20173499884E+00 0.19644190165E+00 0.20173499884E+00 0.21623819874E+00
 0.23708235681E+00 0.26264700015E+00 0.29460000359E+00 0.33771738833E+00 0.39759810935E+00
 0.47754692996E+00 0.57602838373E+00 0.68563181069E+00 0.79392684688E+00 0.88599701966E+00
 0.94785311594E+00 0.59216988724E+00 0.58275101596E+00 0.55586163763E+00 0.51525237254E+00
 0.46621228028E+00 0.41457484413E+00 0.36566835963E+00 0.32320322302E+00 0.28844575037E+00
 0.26032789967E+00 0.23672847424E+00 0.21623819874E+00 0.19923741224E+00 0.18761327763E+00
 0.18344394734E+00 0.18761327763E+00 0.19923741224E+00 0.21623819874E+00 0.23672847424E+00
 0.26032789967E+00 0.28844575037E+00 0.32320322302E+00 0.36566835963E+00 0.41457484413E+00
 0.46621228028E+00 0.51525237254E+00 0.55586163763E+00 0.58275101596E+00 0.45790490913E+00
 0.45207378691E+00 0.43562335535E+00 0.41122506494E+00 0.38214854057E+00 0.35132627127E+00
 0.32089291242E+00 0.29212597031E+00 0.26559782108E+00 0.24148736772E+00 0.22000745590E+00
 0.20173499884E+00 0.18761327763E+00 0.17865090232E+00 0.17557708960E+00 0.17865090232E+00
 0.18761327763E+00 0.20173499884E+00 0.22000745590E+00 0.24148736772E+00 0.26559782108E+00
 0.29212597031E+00 0.32089291242E+00 0.35132627127E+00 0.38214854057E+00 0.41122506494E+00
 0.43562335535E+00 0.45207378691E+00 0.44023316348E+00 0.43414524427E+00 0.41725525891E+00
 0.39301752054E+00 0.36539347611E+00 0.33734397109E+00 0.31021295055E+00 0.28415293770E+00
 0.25907164983E+00 0.23537275327E+00 0.21407953011E+00 0.19644190165E+00 0.18344394734E+00
 0.17557708960E+00 0.17295604708E+00 0.17557708960E+00 0.18344394734E+00 0.19644190165E+00
 0.21407953011E+00 0.23537275327E+00 0.25907164983E+00 0.28415293770E+00 0.31021295055E+00
 0.33734397109E+00 0.36539347611E+00 0.39301752054E+00 0.41725525891E+00 0.43414524427E+00
 0.45790490913E+00 0.45207378691E+00 0.43562335535E+00 0.41122506494E+00 0.38214854057E+00
 0.35132627127E+00 0.32089291242E+00 0.29212597031E+00 0.26559782108E+00 0.24148736772E+00
 0.22000745590E+00 0.20173499884E+00 0.18761327763E+00 0.17865090232E+00 0.17557708960E+00
 0.17865090232E+00 0.18761327763E+00 0.20173499884E+00 0.22000745590E+00 0.24148736772E+00
 0.26559782108E+00 0.29212597031E+00 0.32089291242E+00 0.35132627127E+00 0.38214854057E+00
 0.41122506494E+00 0.43562335535E+00 0.45207378691E+00 0.59216988724E+00 0.58275101596E+00
 0.55586163763E+00 0.51525237254E+00 0.46621228028E+00 0.41457484413E+00 0.36566835963E+00
 0.32320322302E+00 0.28844575037E+00 0.26032789967E+00 0.23672847424E+00 0.21623819874E+00
 0.19923741224E+00 0.18761327763E+00 0.18344394734E+00 0.18761327763E+00 0.19923741224E+00
 0.21623819874E+00 0.23672847424E+00 0.26032789967E+00 0.28844575037E+00 0.32320322302E+00
 0.36566835963E+00 0.41457484413E+00 0.46621228028E+00 0.51525237254E+00 0.55586163763E+00
 0.58275101596E+00 0.96964903354E+00 0.94785311594E+00 0.88599701966E+00 0.79392684688E+00
 0.68563181069E+00 0.57602838373E+00 0.47754692996E+00 0.39759810935E+00 0.33771738833E+00
 0.29460000359E+00 0.26264700015E+00 0.23708235681E+00 0.21623819874E+00 0.20173499884E+00
 0.19644190165E+00 0.20173499884E+00 0.21623819874E+00 0.23708235681E+00 0.26264700015E+00
 0.29460000359E+00 0.33771738833E+00 0.39759810935E+00 0.47754692996E+00 0.57602838373E+00
 0.68563181069E+00 0.79392684688E+00 0.88599701966E+00 0.94785311594E+00 0.16159586746E+01
 0.15760849583E+01 0.14626108292E+01 0.12927653049E+01 0.10913164304E+01 0.88524465041E+00
 0.69794019957E+00 0.54465138616E+00 0.43052695261E+00 0.35170161609E+00 0.29896038353E+00
 0.26264700015E+00 0.23672847424E+00 0.22000745590E+00 0.21407953011E+00 0.22000745590E+00
 0.23672847424E+00 0.26264700015E+00 0.29896038353E+00 0.35170161609E+00 0.43052695261E+00
 0.54465138616E+00 0.69794019957E+00 0.88524465041E+00 0.10913164304E+01 0.12927653049E+01
 0.14626108292E+01 0.15760849583E+01 0.25366403978E+01 0.24747970386E+01 0.22986433143E+01
 0.20335643447E+01 0.17145666786E+01 0.13796149422E+01 0.10640758379E+01 0.79551025079E+00
 0.58889234917E+00 0.44464032368E+00 0.35170161609E+00 0.29460000359E+00 0.26032789967E+00
 0.24148736772E+00 0.23537275327E+00 0.24148736772E+00 0.26032789967E+00 0.29460000359E+00
 0.35170161609E+00 0.44464032368E+00 0.58889234917E+00 0.79551025079E+00 0.10640758379E+01
 0.13796149422E+01 0.17145666786E+01 0.20335643447E+01 0.22986433143E+01 0.24747970386E+01
 0.39064844274E+01 0.38040093554E+01 0.35168238889E+01 0.30957162123E+01 0.26010604998E+01
 0.20872520815E+01 0.15990552258E+01 0.11726986076E+01 0.83319345928E+00 0.58889234917E+00
 0.43052695261E+00 0.33771738833E+00 0.28844575037E+00 0.26559782108E+00 0.25907164983E+00
 0.26559782108E+00 0.28844575037E+00 0.33771738833E+00 0.43052695261E+00 0.58889234917E+00
 0.83319345928E+00 0.11726986076E+01 0.15990552258E+01 0.20872520815E+01 0.26010604998E+01
 0.30957162123E+01 0.35168238889E+01 0.38040093554E+01 0.61501365289E+01 0.59526485013E+01
 0.54139898536E+01 0.46638135938E+01 0.38399360017E+01 0.30386473249E+01 0.23101883833E+01
 0.16814684382E+01 0.11726986076E+01 0.79551025079E+00 0.54465138616E+00 0.39759810935E+00
 0.32320322302E+00 0.29212597031E+00 0.28415293770E+00 0.29212597031E+00 0.32320322302E+00
 0.39759810935E+00 0.54465138616E+00 0.79551025079E+00 0.11726986076E+01 0.16814684382E+01
 0.23101883833E+01 0.30386473249E+01 0.38399360017E+01 0.46638135938E+01 0.54139898536E+01
 0.59526485013E+01 0.10029483054E+02 0.96192633679E+01 0.85265392488E+01 0.70779118123E+01
 0.56022344835E+01 0.42935197776E+01 0.32021135018E+01 0.23101883833E+01 0.15990552258E+01
 0.10640758379E+01 0.69794019957E+00 0.47754692996E+00 0.36566835963E+00 0.32089291242E+00
 0.31021295055E+00 0.32089291242E+00 0.36566835963E+00 0.47754692996E+00 0.69794019957E+00
 0.10640758379E+01 0.15990552258E+01 0.23101883833E+01 0.32021135018E+01 0.42935197776E+01
 0.56022344835E+01 0.70779118123E+01 0.85265392488E+01 0.96192633679E+01 0.16829650388E+02
 0.15979458172E+02 0.13753259313E+02 0.10909248960E+02 0.81840440967E+01 0.59670678893E+01
 0.42935197776E+01 0.30386473249E+01 0.20872520815E+01 0.13796149422E+01 0.88524465041E+00
 0.57602838373E+00 0.41457484413E+00 0.35132627127E+00 0.33734397109E+00 0.35132627127E+00
 0.41457484413E+00 0.57602838373E+00 0.88524465041E+00 0.13796149422E+01 0.20872520815E+01
 0.30386473249E+01 0.42935197776E+01 0.59670678893E+01 0.81840440967E+01 0.10909248960E+02
 0.13753259313E+02 0.15979458172E+02 0.28097695313E+02 0.26442360509E+02 0.22157247026E+02
 0.16818303701E+02 0.11917376224E+02 0.81840440967E+01 0.56022344835E+01 0.38399360017E+01
 0.26010604998E+01 0.17145666786E+01 0.10913164304E+01 0.68563181069E+00 0.46621228028E+00
 0.38214854057E+00 0.36539347611E+00 0.38214854057E+00 0.46621228028E+00 0.68563181069E+00
 0.10913164304E+01 0.17145666786E+01 0.26010604998E+01 0.38399360017E+01 0.56022344835E+01
 0.81840440967E+01 0.11917376224E+02 0.16818303701E+02 0.22157247026E+02 0.26442360509E+02
 0.44277840403E+02 0.41399630382E+02 0.34001000321E+02 0.24924969493E+02 0.16818303701E+02
 0.10909248960E+02 0.70779118123E+01 0.46638135938E+01 0.30957162123E+01 0.20335643447E+01
 0.12927653049E+01 0.79392684688E+00 0.51525237254E+00 0.41122506494E+00 0.39301752054E+00
 0.41122506494E+00 0.51525237254E+00 0.79392684688E+00 0.12927653049E+01 0.20335643447E+01
 0.30957162123E+01 0.46638135938E+01 0.70779118123E+01 0.10909248960E+02 0.16818303701E+02
 0.24924969493E+02 0.34001000321E+02 0.41399630382E+02 0.63085706912E+02 0.58652931754E+02
 0.47476887873E+02 0.34001000321E+02 0.22157247026E+02 0.13753259313E+02 0.85265392488E+01
 0.54139898536E+01 0.35168238889E+01 0.22986433143E+01 0.14626108292E+01 0.88599701966E+00
 0.55586163763E+00 0.43562335535E+00 0.41725525891E+00 0.43562335535E+00 0.55586163763E+00
 0.88599701966E+00 0.14626108292E+01 0.22986433143E+01 0.35168238889E+01 0.54139898536E+01
 0.85265392488E+01 0.13753259313E+02 0.22157247026E+02 0.34001000321E+02 0.47476887873E+02
 0.58652931754E+02 0.79276978545E+02 0.73359740483E+02 0.58652931754E+02 0.41399630382E+02
 0.26442360509E+02 0.15979458172E+02 0.96192633679E+01 0.59526485013E+01 0.38040093554E+01
 0.24747970386E+01 0.15760849583E+01 0.94785311594E+00 0.58275101596E+00 0.45207378691E+00
 0.43414524427E+00 0.45207378691E+00 0.58275101596E+00 0.94785311594E+00 0.15760849583E+01
 0.24747970386E+01 0.38040093554E+01 0.59526485013E+01 0.96192633679E+01 0.15979458172E+02
 0.26442360509E+02 0.41399630382E+02 0.58652931754E+02 0.73359740483E+02 0.87031885929E+02
 0.80059922279E+02 0.62927020843E+02 0.43536297683E+02 0.27577698654E+02 0.16535923201E+02
 0.98546967065E+01 0.60359749101E+01 0.38268257312E+01 0.24806124367E+01 0.15799809860E+01
 0.95104970581E+00 0.58460495298E+00 0.45386581156E+00 0.43635722207E+00 0.45386581156E+00
 0.58460495298E+00 0.95104970581E+00 0.15799809860E+01 0.24806124367E+01 0.38268257312E+01
 0.60359749101E+01 0.98546967065E+01 0.16535923201E+02 0.27577698654E+02 0.43536297683E+02
 0.62927020843E+02 0.80059922279E+02 0.80059922279E+02 0.73771813566E+02 0.58287153105E+02
 0.40655056006E+02 0.25957259349E+02 0.15701632431E+02 0.94512757462E+01 0.58415583802E+01
 0.37261147082E+01 0.24201772693E+01 0.15412634832E+01 0.92996445743E+00 0.57550535724E+00
 0.44824480750E+00 0.43049836773E+00 0.44824480750E+00 0.57550535724E+00 0.92996445743E+00
 0.15412634832E+01 0.24201772693E+01 0.37261147082E+01 0.58415583802E+01 0.94512757462E+01
 0.15701632431E+02 0.25957259349E+02 0.40655056006E+02 0.58287153105E+02 0.73771813566E+02
 0.62927020843E+02 0.58287153105E+02 0.46767566825E+02 0.33353875901E+02 0.21760368907E+02
 0.13516115065E+02 0.83763412714E+01 0.53112540857E+01 0.34439475546E+01 0.22480727348E+01
 0.14310572855E+01 0.87007338831E+00 0.54946575434E+00 0.43232218852E+00 0.41417884762E+00
 0.43232218852E+00 0.54946575434E+00 0.87007338831E+00 0.14310572855E+01 0.22480727348E+01
 0.34439475546E+01 0.53112540857E+01 0.83763412714E+01 0.13516115065E+02 0.21760368907E+02
 0.33353875901E+02 0.46767566825E+02 0.58287153105E+02 0.43536297683E+02 0.40655056006E+02
 0.33353875901E+02 0.24471471018E+02 0.16525926042E+02 0.10721639043E+02 0.69505495538E+01
 0.45727680082E+01 0.30304773408E+01 0.19892179096E+01 0.12660533391E+01 0.78080426246E+00
 0.51000097000E+00 0.40856382390E+00 0.39061464173E+00 0.40856382390E+00 0.51000097000E+00
 0.78080426246E+00 0.12660533391E+01 0.19892179096E+01 0.30304773408E+01 0.45727680082E+01
 0.69505495538E+01 0.10721639043E+02 0.16525926042E+02 0.24471471018E+02 0.33353875901E+02
 0.40655056006E+02 0.27577698654E+02 0.25957259349E+02 0.21760368907E+02 0.16525926042E+02
 0.11713410496E+02 0.80406560126E+01 0.54973942200E+01 0.37621555877E+01 0.25454091739E+01
 0.16779741217E+01 0.10703046003E+01 0.67566715649E+00 0.46221612554E+00 0.38012941588E+00
 0.36362967202E+00 0.38012941588E+00 0.46221612554E+00 0.67566715649E+00 0.10703046003E+01
 0.16779741217E+01 0.25454091739E+01 0.37621555877E+01 0.54973942200E+01 0.80406560126E+01
 0.11713410496E+02 0.16525926042E+02 0.21760368907E+02 0.25957259349E+02 0.16535923201E+02
 0.15701632431E+02 0.13516115065E+02 0.10721639043E+02 0.80406560126E+01 0.58571844065E+01
 0.42087200301E+01 0.29748482917E+01 0.20425152692E+01 0.13515465259E+01 0.87008403524E+00
 0.56921857297E+00 0.41192492595E+00 0.35004556987E+00 0.33627580396E+00 0.35004556987E+00
 0.41192492595E+00 0.56921857297E+00 0.87008403524E+00 0.13515465259E+01 0.20425152692E+01
 0.29748482917E+01 0.42087200301E+01 0.58571844065E+01 0.80406560126E+01 0.10721639043E+02
 0.13516115065E+02 0.15701632431E+02 0.98546967065E+01 0.94512757462E+01 0.83763412714E+01
 0.69505495538E+01 0.54973942200E+01 0.42087200301E+01 0.31354491849E+01 0.22607772711E+01
 0.15657859551E+01 0.10444697394E+01 0.68823407682E+00 0.47373536662E+00 0.36458944011E+00
 0.32070814940E+00 0.31018671005E+00 0.32070814940E+00 0.36458944011E+00 0.47373536662E+00
 0.68823407682E+00 0.10444697394E+01 0.15657859551E+01 0.22607772711E+01 0.31354491849E+01
 0.42087200301E+01 0.54973942200E+01 0.69505495538E+01 0.83763412714E+01 0.94512757462E+01
 0.60359749101E+01 0.58415583802E+01 0.53112540857E+01 0.45727680082E+01 0.37621555877E+01
 0.29748482917E+01 0.22607772711E+01 0.16462786806E+01 0.11504084852E+01 0.78352643332E+00
 0.53971264016E+00 0.39668192706E+00 0.32415211086E+00 0.29374545345E+00 0.28591907770E+00
 0.29374545345E+00 0.32415211086E+00 0.39668192706E+00 0.53971264016E+00 0.78352643332E+00
 0.11504084852E+01 0.16462786806E+01 0.22607772711E+01 0.29748482917E+01 0.37621555877E+01
 0.45727680082E+01 0.53112540857E+01 0.58415583802E+01 0.38268257312E+01 0.37261147082E+01
 0.34439475546E+01 0.30304773408E+01 0.25454091739E+01 0.20425152692E+01 0.15657859551E+01
 0.11504084852E+01 0.82031842503E+00 0.58318278033E+00 0.42966785535E+00 0.33981381570E+00
 0.29218034944E+00 0.27012927928E+00 0.26383899911E+00 0.27012927928E+00 0.29218034944E+00
 0.33981381570E+00 0.42966785535E+00 0.58318278033E+00 0.82031842503E+00 0.11504084852E+01
 0.15657859551E+01 0.20425152692E+01 0.25454091739E+01 0.30304773408E+01 0.34439475546E+01
 0.37261147082E+01 0.24806124367E+01 0.24201772693E+01 0.22480727348E+01 0.19892179096E+01
 0.16779741217E+01 0.13515465259E+01 0.10444697394E+01 0.78352643332E+00 0.58318278033E+00
 0.44376449376E+00 0.35446387679E+00 0.30012869404E+00 0.26792086222E+00 0.25040658309E+00
 0.24475515096E+00 0.25040658309E+00 0.26792086222E+00 0.30012869404E+00 0.35446387679E+00
 0.44376449376E+00 0.58318278033E+00 0.78352643332E+00 0.10444697394E+01 0.13515465259E+01
 0.16779741217E+01 0.19892179096E+01 0.22480727348E+01 0.24201772693E+01 0.15799809860E+01
 0.15412634832E+01 0.14310572855E+01 0.12660533391E+01 0.10703046003E+01 0.87008403524E+00
 0.68823407682E+00 0.53971264016E+00 0.42966785535E+00 0.35446387679E+00 0.30517188613E+00
 0.27224011178E+00 0.24939276223E+00 0.23489398512E+00 0.22978502399E+00 0.23489398512E+00
 0.24939276223E+00 0.27224011178E+00 0.30517188613E+00 0.35446387679E+00 0.42966785535E+00
 0.53971264016E+00 0.68823407682E+00 0.87008403524E+00 0.10703046003E+01 0.12660533391E+01
 0.14310572855E+01 0.15412634832E+01 0.95104970581E+00 0.92996445743E+00 0.87007338831E+00
 0.78080426246E+00 0.67566715649E+00 0.56921857297E+00 0.47373536662E+00 0.39668192706E+00
 0.33981381570E+00 0.30012869404E+00 0.27224011178E+00 0.25124848223E+00 0.23486058790E+00
 0.22368641089E+00 0.21963505474E+00 0.22368641089E+00 0.23486058790E+00 0.25124848223E+00
 0.27224011178E+00 0.30012869404E+00 0.33981381570E+00 0.39668192706E+00 0.47373536662E+00
 0.56921857297E+00 0.67566715649E+00 0.78080426246E+00 0.87007338831E+00 0.92996445743E+00
 0.58460495298E+00 0.57550535724E+00 0.54946575434E+00 0.51000097000E+00 0.46221612554E+00
 0.41192492595E+00 0.36458944011E+00 0.32415211086E+00 0.29218034944E+00 0.26792086222E+00
 0.24939276223E+00 0.23486058790E+00 0.22374067403E+00 0.21651441070E+00 0.21398328538E+00
 0.21651441070E+00 0.22374067403E+00 0.23486058790E+00 0.24939276223E+00 0.26792086222E+00
 0.29218034944E+00 0.32415211086E+00 0.36458944011E+00 0.41192492595E+00 0.46221612554E+00
 0.51000097000E+00 0.54946575434E+00 0.57550535724E+00 0.45386581156E+00 0.44824480750E+00
 0.43232218852E+00 0.40856382390E+00 0.38012941588E+00 0.35004556987E+00 0.32070814940E+00
 0.29374545345E+00 0.27012927928E+00 0.25040658309E+00 0.23489398512E+00 0.22368641089E+00
 0.21651441070E+00 0.21271916682E+00 0.21156296165E+00 0.21271916682E+00 0.21651441070E+00
 0.22368641089E+00 0.23489398512E+00 0.25040658309E+00 0.27012927928E+00 0.29374545345E+00
 0.32070814940E+00 0.35004556987E+00 0.38012941588E+00 0.40856382390E+00 0.43232218852E+00
 0.44824480750E+00 0.43635722207E+00 0.43049836773E+00 0.41417884762E+00 0.39061464173E+00
 0.36362967202E+00 0.33627580396E+00 0.31018671005E+00 0.28591907770E+00 0.26383899911E+00
 0.24475515096E+00 0.22978502399E+00 0.21963505474E+00 0.21398328538E+00 0.21156296165E+00
 0.21095981853E+00 0.21156296165E+00 0.21398328538E+00 0.21963505474E+00 0.22978502399E+00
 0.24475515096E+00 0.26383899911E+00 0.28591907770E+00 0.31018671005E+00 0.33627580396E+00
 0.36362967202E+00 0.39061464173E+00 0.41417884762E+00 0.43049836773E+00 0.45386581156E+00
 0.44824480750E+00 0.43232218852E+00 0.40856382390E+00 0.38012941588E+00 0.35004556987E+00
 0.32070814940E+00 0.29374545345E+00 0.27012927928E+00 0.25040658309E+00 0.23489398512E+00
 0.22368641089E+00 0.21651441070E+00 0.21271916682E+00 0.21156296165E+00 0.21271916682E+00
 0.21651441070E+00 0.22368641089E+00 0.23489398512E+00 0.25040658309E+00 0.27012927928E+00
 0.29374545345E+00 0.32070814940E+00 0.35004556987E+00 0.38012941588E+00 0.40856382390E+00
 0.43232218852E+00 0.44824480750E+00 0.58460495298E+00 0.57550535724E+00 0.54946575434E+00
 0.51000097000E+00 0.46221612554E+00 0.41192492595E+00 0.36458944011E+00 0.32415211086E+00
 0.29218034944E+00 0.26792086222E+00 0.24939276223E+00 0.23486058790E+00 0.22374067403E+00
 0.21651441070E+00 0.21398328538E+00 0.21651441070E+00 0.22374067403E+00 0.23486058790E+00
 0.24939276223E+00 0.26792086222E+00 0.29218034944E+00 0.32415211086E+00 0.36458944011E+00
 0.41192492595E+00 0.46221612554E+00 0.51000097000E+00 0.54946575434E+00 0.57550535724E+00
 0.95104970581E+00 0.92996445743E+00 0.87007338831E+00 0.78080426246E+00 0.67566715649E+00
 0.56921857297E+00 0.47373536662E+00 0.39668192706E+00 0.33981381570E+00 0.30012869404E+00
 0.27224011178E+00 0.25124848223E+00 0.23486058790E+00 0.22368641089E+00 0.21963505474E+00
 0.22368641089E+00 0.23486058790E+00 0.25124848223E+00 0.27224011178E+00 0.30012869404E+00
 0.33981381570E+00 0.39668192706E+00 0.47373536662E+00 0.56921857297E+00 0.67566715649E+00
 0.78080426246E+00 0.87007338831E+00 0.92996445743E+00 0.15799809860E+01 0.15412634832E+01
 0.14310572855E+01 0.12660533391E+01 0.10703046003E+01 0.87008403524E+00 0.68823407682E+00
 0.53971264016E+00 0.42966785535E+00 0.35446387679E+00 0.30517188613E+00 0.27224011178E+00
 0.24939276223E+00 0.23489398512E+00 0.22978502399E+00 0.23489398512E+00 0.24939276223E+00
 0.27224011178E+00 0.30517188613E+00 0.35446387679E+00 0.42966785535E+00 0.53971264016E+00
 0.68823407682E+00 0.87008403524E+00 0.10703046003E+01 0.12660533391E+01 0.14310572855E+01
 0.15412634832E+01 0.24806124367E+01 0.24201772693E+01 0.22480727348E+01 0.19892179096E+01
 0.16779741217E+01 0.13515465259E+01 0.10444697394E+01 0.78352643332E+00 0.58318278033E+00
 0.44376449376E+00 0.35446387679E+00 0.30012869404E+00 0.26792086222E+00 0.25040658309E+00
 0.24475515096E+00 0.25040658309E+00 0.26792086222E+00 0.30012869404E+00 0.35446387679E+00
 0.44376449376E+00 0.58318278033E+00 0.78352643332E+00 0.10444697394E+01 0.13515465259E+01
 0.16779741217E+01 0.19892179096E+01 0.22480727348E+01 0.24201772693E+01 0.38268257312E+01
 0.37261147082E+01 0.34439475546E+01 0.30304773408E+01 0.25454091739E+01 0.20425152692E+01
 0.15657859551E+01 0.11504084852E+01 0.82031842503E+00 0.58318278033E+00 0.42966785535E+00
 0.33981381570E+00 0.29218034944E+00 0.27012927928E+00 0.26383899911E+00 0.27012927928E+00
 0.29218034944E+00 0.33981381570E+00 0.42966785535E+00 0.58318278033E+00 0.82031842503E+00
 0.11504084852E+01 0.15657859551E+01 0.20425152692E+01 0.25454091739E+01 0.30304773408E+01
 0.34439475546E+01 0.37261147082E+01 0.60359749101E+01 0.58415583802E+01 0.53112540857E+01
 0.45727680082E+01 0.37621555877E+01 0.29748482917E+01 0.22607772711E+01 0.16462786806E+01
 0.11504084852E+01 0.78352643332E+00 0.53971264016E+00 0.39668192706E+00 0.32415211086E+00
 0.29374545345E+00 0.28591907770E+00 0.29374545345E+00 0.32415211086E+00 0.39668192706E+00
 0.53971264016E+00 0.78352643332E+00 0.11504084852E+01 0.16462786806E+01 0.22607772711E+01
 0.29748482917E+01 0.37621555877E+01 0.45727680082E+01 0.53112540857E+01 0.58415583802E+01
 0.98546967065E+01 0.94512757462E+01 0.83763412714E+01 0.69505495538E+01 0.54973942200E+01
 0.42087200301E+01 0.31354491849E+01 0.22607772711E+01 0.15657859551E+01 0.10444697394E+01
 0.68823407682E+00 0.47373536662E+00 0.36458944011E+00 0.32070814940E+00 0.31018671005E+00
 0.32070814940E+00 0.36458944011E+00 0.47373536662E+00 0.68823407682E+00 0.10444697394E+01
 0.15657859551E+01 0.22607772711E+01 0.31354491849E+01 0.42087200301E+01 0.54973942200E+01
 0.69505495538E+01 0.83763412714E+01 0.94512757462E+01 0.16535923201E+02 0.15701632431E+02
 0.13516115065E+02 0.10721639043E+02 0.80406560126E+01 0.58571844065E+01 0.42087200301E+01
 0.29748482917E+01 0.20425152692E+01 0.13515465259E+01 0.87008403524E+00 0.56921857297E+00
 0.41192492595E+00 0.35004556987E+00 0.33627580396E+00 0.35004556987E+00 0.41192492595E+00
 0.56921857297E+00 0.87008403524E+00 0.13515465259E+01 0.20425152692E+01 0.29748482917E+01
 0.42087200301E+01 0.58571844065E+01 0.80406560126E+01 0.10721639043E+02 0.13516115065E+02
 0.15701632431E+02 0.27577698654E+02 0.25957259349E+02 0.21760368907E+02 0.16525926042E+02
 0.11713410496E+02 0.80406560126E+01 0.54973942200E+01 0.37621555877E+01 0.25454091739E+01
 0.16779741217E+01 0.10703046003E+01 0.67566715649E+00 0.46221612554E+00 0.38012941588E+00
 0.36362967202E+00 0.38012941588E+00 0.46221612554E+00 0.67566715649E+00 0.10703046003E+01
 0.16779741217E+01 0.25454091739E+01 0.37621555877E+01 0.54973942200E+01 0.80406560126E+01
 0.11713410496E+02 0.16525926042E+02 0.21760368907E+02 0.25957259349E+02 0.43536297683E+02
 0.40655056006E+02 0.33353875901E+02 0.24471471018E+02 0.16525926042E+02 0.10721639043E+02
 0.69505495538E+01 0.45727680082E+01 0.30304773408E+01 0.19892179096E+01 0.12660533391E+01
 0.78080426246E+00 0.51000097000E+00 0.40856382390E+00 0.39061464173E+00 0.40856382390E+00
 0.51000097000E+00 0.78080426246E+00 0.12660533391E+01 0.19892179096E+01 0.30304773408E+01
 0.45727680082E+01 0.69505495538E+01 0.10721639043E+02 0.16525926042E+02 0.24471471018E+02
 0.33353875901E+02 0.40655056006E+02 0.62927020843E+02 0.58287153105E+02 0.46767566825E+02
 0.33353875901E+02 0.21760368907E+02 0.13516115065E+02 0.83763412714E+01 0.53112540857E+01
 0.34439475546E+01 0.22480727348E+01 0.14310572855E+01 0.87007338831E+00 0.54946575434E+00
 0.43232218852E+00 0.41417884762E+00 0.43232218852E+00 0.54946575434E+00 0.87007338831E+00
 0.14310572855E+01 0.22480727348E+01 0.34439475546E+01 0.53112540857E+01 0.83763412714E+01
 0.13516115065E+02 0.21760368907E+02 0.33353875901E+02 0.46767566825E+02 0.58287153105E+02
 0.80059922279E+02 0.73771813566E+02 0.58287153105E+02 0.40655056006E+02 0.25957259349E+02
 0.15701632431E+02 0.94512757462E+01 0.58415583802E+01 0.37261147082E+01 0.24201772693E+01
 0.15412634832E+01 0.92996445743E+00 0.57550535724E+00 0.44824480750E+00 0.43049836773E+00
 0.44824480750E+00 0.57550535724E+00 0.92996445743E+00 0.15412634832E+01 0.24201772693E+01
 0.37261147082E+01 0.58415583802E+01 0.94512757462E+01 0.15701632431E+02 0.25957259349E+02
 0.40655056006E+02 0.58287153105E+02 0.73771813566E+02 0.86893840847E+02 0.79336511253E+02
 0.61081516128E+02 0.41222601731E+02 0.25860391010E+02 0.15565247812E+02 0.92899663023E+01
 0.56814598537E+01 0.35894871743E+01 0.23189240562E+01 0.14780300567E+01 0.89859291602E+00
 0.56295516925E+00 0.44190336978E+00 0.42478570380E+00 0.44190336978E+00 0.56295516925E+00
 0.89859291602E+00 0.14780300567E+01 0.23189240562E+01 0.35894871743E+01 0.56814598537E+01
 0.92899663023E+01 0.15565247812E+02 0.25860391010E+02 0.41222601731E+02 0.61081516128E+02
 0.79336511253E+02 0.79336511253E+02 0.72576699730E+02 0.56233712527E+02 0.38371611493E+02
 0.24351469943E+02 0.14784444979E+02 0.89099116853E+01 0.54975705045E+01 0.34944984517E+01
 0.22626874637E+01 0.14425816587E+01 0.87946063145E+00 0.55470762503E+00 0.43683628807E+00
 0.41953653053E+00 0.43683628807E+00 0.55470762503E+00 0.87946063145E+00 0.14425816587E+01
 0.22626874637E+01 0.34944984517E+01 0.54975705045E+01 0.89099116853E+01 0.14784444979E+02
 0.24351469943E+02 0.38371611493E+02 0.56233712527E+02 0.72576699730E+02 0.61081516128E+02