   4   4   0   0
  0.1177524E+02  0.3380942E-09  0.3380942E-09  0.4120540E-09  0.5000000E-15
   1.0000000000000000E-004
  CAR 
 unknown system                          
     46.56079221    -13.18474408 2000     -7.98334820      1.00000000
    -13.185  0.0000E+00  0.0000E+00
    -13.155  0.0000E+00  0.0000E+00
    -13.125  0.0000E+00  0.0000E+00
    -13.095  0.0000E+00  0.0000E+00
    -13.065  0.0000E+00  0.0000E+00
    -13.035  0.0000E+00  0.0000E+00
    -13.005  0.0000E+00  0.0000E+00
    -12.976  0.0000E+00  0.0000E+00
    -12.946  0.0000E+00  0.0000E+00
    -12.916  0.0000E+00  0.0000E+00
    -12.886  0.0000E+00  0.0000E+00
    -12.856  0.0000E+00  0.0000E+00
    -12.826  0.0000E+00  0.0000E+00
    -12.796  0.0000E+00  0.0000E+00
    -12.766  0.0000E+00  0.0000E+00
    -12.736  0.0000E+00  0.0000E+00
    -12.707  0.0000E+00  0.0000E+00
    -12.677  0.0000E+00  0.0000E+00
    -12.647  0.0000E+00  0.0000E+00
    -12.617  0.0000E+00  0.0000E+00
    -12.587  0.0000E+00  0.0000E+00
    -12.557  0.0000E+00  0.0000E+00
    -12.527  0.0000E+00  0.0000E+00
    -12.497  0.0000E+00  0.0000E+00
    -12.467  0.0000E+00  0.0000E+00
    -12.438  0.0000E+00  0.0000E+00
    -12.408  0.0000E+00  0.0000E+00
    -12.378  0.0000E+00  0.0000E+00
    -12.348  0.0000E+00  0.0000E+00
    -12.318  0.0000E+00  0.0000E+00
    -12.288  0.0000E+00  0.0000E+00
    -12.258  0.0000E+00  0.0000E+00
    -12.228  0.0000E+00  0.0000E+00
    -12.198  0.0000E+00  0.0000E+00
    -12.169  0.0000E+00  0.0000E+00
    -12.139  0.0000E+00  0.0000E+00
    -12.109  0.0000E+00  0.0000E+00
    -12.079  0.0000E+00  0.0000E+00
    -12.049  0.0000E+00  0.0000E+00
    -12.019  0.0000E+00  0.0000E+00
    -11.989  0.0000E+00  0.0000E+00
    -11.959  0.0000E+00  0.0000E+00
    -11.929  0.0000E+00  0.0000E+00
    -11.900  0.0000E+00  0.0000E+00
    -11.870  0.0000E+00  0.0000E+00
    -11.840  0.0000E+00  0.0000E+00
    -11.810  0.0000E+00  0.0000E+00
    -11.780  0.0000E+00  0.0000E+00
    -11.750  0.0000E+00  0.0000E+00
    -11.720  0.0000E+00  0.0000E+00
    -11.690  0.0000E+00  0.0000E+00
    -11.660  0.0000E+00  0.0000E+00
    -11.631  0.0000E+00  0.0000E+00
    -11.601  0.0000E+00  0.0000E+00
    -11.571  0.0000E+00  0.0000E+00
    -11.541  0.0000E+00  0.0000E+00
    -11.511  0.0000E+00  0.0000E+00
    -11.481  0.0000E+00  0.0000E+00
    -11.451  0.0000E+00  0.0000E+00
    -11.421  0.0000E+00  0.0000E+00
    -11.391  0.0000E+00  0.0000E+00
    -11.362  0.0000E+00  0.0000E+00
    -11.332  0.0000E+00  0.0000E+00
    -11.302  0.0000E+00  0.0000E+00
    -11.272  0.0000E+00  0.0000E+00
    -11.242  0.0000E+00  0.0000E+00
    -11.212  0.0000E+00  0.0000E+00
    -11.182  0.0000E+00  0.0000E+00
    -11.152  0.0000E+00  0.0000E+00
    -11.122  0.0000E+00  0.0000E+00
    -11.093  0.0000E+00  0.0000E+00
    -11.063  0.0000E+00  0.0000E+00
    -11.033  0.0000E+00  0.0000E+00
    -11.003  0.0000E+00  0.0000E+00
    -10.973  0.0000E+00  0.0000E+00
    -10.943  0.0000E+00  0.0000E+00
    -10.913  0.0000E+00  0.0000E+00
    -10.883  0.0000E+00  0.0000E+00
    -10.854  0.0000E+00  0.0000E+00
    -10.824  0.0000E+00  0.0000E+00
    -10.794  0.0000E+00  0.0000E+00
    -10.764  0.0000E+00  0.0000E+00
    -10.734  0.0000E+00  0.0000E+00
    -10.704  0.0000E+00  0.0000E+00
    -10.674  0.0000E+00  0.0000E+00
    -10.644  0.0000E+00  0.0000E+00
    -10.614  0.0000E+00  0.0000E+00
    -10.585  0.0000E+00  0.0000E+00
    -10.555  0.0000E+00  0.0000E+00
    -10.525  0.6449E-16  0.1927E-17
    -10.495  0.5070E-05  0.1515E-06
    -10.465  0.2779E-01  0.8308E-03
    -10.435  0.3063E-01  0.1746E-02
    -10.405  0.2014E+00  0.7765E-02
    -10.375  0.2645E+00  0.1567E-01
    -10.345  0.2125E+00  0.2202E-01
    -10.316  0.3569E+00  0.3269E-01
    -10.286  0.3880E-01  0.3385E-01
    -10.256  0.4215E+00  0.4644E-01
    -10.226  0.4112E+00  0.5873E-01
    -10.196  0.6060E+00  0.7685E-01
    -10.166  0.5643E+00  0.9371E-01
    -10.136  0.8442E-01  0.9624E-01
    -10.106  0.3411E+00  0.1064E+00
    -10.076  0.9113E+00  0.1337E+00
    -10.047  0.5210E+00  0.1492E+00
    -10.017  0.3878E+00  0.1608E+00
     -9.987  0.4830E+00  0.1753E+00
     -9.957  0.7231E+00  0.1969E+00
     -9.927  0.8140E+00  0.2212E+00
     -9.897  0.8026E+00  0.2452E+00
     -9.867  0.4861E+00  0.2597E+00
     -9.837  0.9363E+00  0.2877E+00
     -9.807  0.7965E+00  0.3115E+00
     -9.778  0.3006E+00  0.3205E+00
     -9.748  0.6301E+00  0.3393E+00
     -9.718  0.1261E+01  0.3770E+00
     -9.688  0.1262E+01  0.4147E+00
     -9.658  0.6248E+00  0.4334E+00
     -9.628  0.5242E+00  0.4491E+00
     -9.598  0.1311E+01  0.4883E+00
     -9.568  0.1493E+01  0.5329E+00
     -9.538  0.1413E+01  0.5751E+00
     -9.509  0.7476E+00  0.5974E+00
     -9.479  0.7394E+00  0.6195E+00
     -9.449  0.1532E+01  0.6653E+00
     -9.419  0.7719E+00  0.6884E+00
     -9.389  0.6234E+00  0.7070E+00
     -9.359  0.1838E+01  0.7620E+00
     -9.329  0.1527E+01  0.8076E+00
     -9.299  0.2503E+01  0.8824E+00
     -9.269  0.1059E+01  0.9141E+00
     -9.240  0.1031E+01  0.9449E+00
     -9.210  0.2478E+01  0.1019E+01
     -9.180  0.2173E+01  0.1084E+01
     -9.150  0.8179E+00  0.1108E+01
     -9.120  0.1021E+01  0.1139E+01
     -9.090  0.3043E+01  0.1230E+01
     -9.060  0.1827E+01  0.1284E+01
     -9.030  0.1227E+01  0.1321E+01
     -9.000  0.2863E+01  0.1407E+01
     -8.971  0.2952E+01  0.1495E+01
     -8.941  0.3053E+01  0.1586E+01
     -8.911  0.3402E+01  0.1688E+01
     -8.881  0.4046E+01  0.1809E+01
     -8.851  0.2978E+01  0.1898E+01
     -8.821  0.3076E+01  0.1990E+01
     -8.791  0.5485E+01  0.2154E+01
     -8.761  0.2335E+01  0.2223E+01
     -8.731  0.4269E+01  0.2351E+01
     -8.702  0.5399E+01  0.2512E+01
     -8.672  0.5531E+01  0.2678E+01
     -8.642  0.6136E+01  0.2861E+01
     -8.612  0.6239E+01  0.3047E+01
     -8.582  0.4486E+01  0.3181E+01
     -8.552  0.5191E+01  0.3337E+01
     -8.522  0.2107E+01  0.3400E+01
     -8.492  0.1858E+01  0.3455E+01
     -8.462  0.3868E+01  0.3571E+01
     -8.433  0.4420E+01  0.3703E+01
     -8.403  0.6049E+00  0.3721E+01
     -8.373  0.4244E+00  0.3734E+01
     -8.343  0.1722E+01  0.3785E+01
     -8.313  0.3565E+00  0.3796E+01
     -8.283  0.1451E+01  0.3839E+01
     -8.253  0.1574E+01  0.3886E+01
     -8.223  0.1067E+01  0.3918E+01
     -8.193  0.3003E+00  0.3927E+01
     -8.164  0.6496E+00  0.3946E+01
     -8.134  0.5056E+00  0.3962E+01
     -8.104  0.5920E+00  0.3979E+01
     -8.074  0.4750E+00  0.3993E+01
     -8.044  0.1801E+00  0.3999E+01
     -8.014  0.3860E-01  0.4000E+01
     -7.984  0.4242E-07  0.4000E+01
     -7.954  0.0000E+00  0.4000E+01
     -7.925  0.0000E+00  0.4000E+01
     -7.895  0.0000E+00  0.4000E+01
     -7.865  0.0000E+00  0.4000E+01
     -7.835  0.0000E+00  0.4000E+01
     -7.805  0.0000E+00  0.4000E+01
     -7.775  0.0000E+00  0.4000E+01
     -7.745  0.0000E+00  0.4000E+01
     -7.715  0.0000E+00  0.4000E+01
     -7.685  0.0000E+00  0.4000E+01
     -7.656  0.0000E+00  0.4000E+01
     -7.626  0.0000E+00  0.4000E+01
     -7.596  0.0000E+00  0.4000E+01
     -7.566  0.0000E+00  0.4000E+01
     -7.536  0.0000E+00  0.4000E+01
     -7.506  0.0000E+00  0.4000E+01
     -7.476  0.0000E+00  0.4000E+01
     -7.446  0.0000E+00  0.4000E+01
     -7.416  0.0000E+00  0.4000E+01
     -7.387  0.0000E+00  0.4000E+01
     -7.357  0.0000E+00  0.4000E+01
     -7.327  0.0000E+00  0.4000E+01
     -7.297  0.0000E+00  0.4000E+01
     -7.267  0.0000E+00  0.4000E+01
     -7.237  0.0000E+00  0.4000E+01
     -7.207  0.0000E+00  0.4000E+01
     -7.177  0.0000E+00  0.4000E+01
     -7.147  0.0000E+00  0.4000E+01
     -7.118  0.0000E+00  0.4000E+01
     -7.088  0.0000E+00  0.4000E+01
     -7.058  0.0000E+00  0.4000E+01
     -7.028  0.0000E+00  0.4000E+01
     -6.998  0.0000E+00  0.4000E+01
     -6.968  0.0000E+00  0.4000E+01
     -6.938  0.0000E+00  0.4000E+01
     -6.908  0.0000E+00  0.4000E+01
     -6.878  0.0000E+00  0.4000E+01
     -6.849  0.0000E+00  0.4000E+01
     -6.819  0.0000E+00  0.4000E+01
     -6.789  0.0000E+00  0.4000E+01
     -6.759  0.0000E+00  0.4000E+01
     -6.729  0.0000E+00  0.4000E+01
     -6.699  0.0000E+00  0.4000E+01
     -6.669  0.0000E+00  0.4000E+01
     -6.639  0.0000E+00  0.4000E+01
     -6.609  0.0000E+00  0.4000E+01
     -6.580  0.0000E+00  0.4000E+01
     -6.550  0.0000E+00  0.4000E+01
     -6.520  0.0000E+00  0.4000E+01
     -6.490  0.0000E+00  0.4000E+01
     -6.460  0.0000E+00  0.4000E+01
     -6.430  0.0000E+00  0.4000E+01
     -6.400  0.0000E+00  0.4000E+01
     -6.370  0.0000E+00  0.4000E+01
     -6.340  0.0000E+00  0.4000E+01
     -6.311  0.0000E+00  0.4000E+01
     -6.281  0.0000E+00  0.4000E+01
     -6.251  0.0000E+00  0.4000E+01
     -6.221  0.0000E+00  0.4000E+01
     -6.191  0.0000E+00  0.4000E+01
     -6.161  0.0000E+00  0.4000E+01
     -6.131  0.0000E+00  0.4000E+01
     -6.101  0.0000E+00  0.4000E+01
     -6.071  0.0000E+00  0.4000E+01
     -6.042  0.0000E+00  0.4000E+01
     -6.012  0.0000E+00  0.4000E+01
     -5.982  0.0000E+00  0.4000E+01
     -5.952  0.0000E+00  0.4000E+01
     -5.922  0.0000E+00  0.4000E+01
     -5.892  0.0000E+00  0.4000E+01
     -5.862  0.0000E+00  0.4000E+01
     -5.832  0.0000E+00  0.4000E+01
     -5.802  0.0000E+00  0.4000E+01
     -5.773  0.0000E+00  0.4000E+01
     -5.743  0.0000E+00  0.4000E+01
     -5.713  0.0000E+00  0.4000E+01
     -5.683  0.0000E+00  0.4000E+01
     -5.653  0.0000E+00  0.4000E+01
     -5.623  0.0000E+00  0.4000E+01
     -5.593  0.0000E+00  0.4000E+01
     -5.563  0.0000E+00  0.4000E+01
     -5.533  0.0000E+00  0.4000E+01
     -5.504  0.0000E+00  0.4000E+01
     -5.474  0.0000E+00  0.4000E+01
     -5.444  0.0000E+00  0.4000E+01
     -5.414  0.0000E+00  0.4000E+01
     -5.384  0.0000E+00  0.4000E+01
     -5.354  0.0000E+00  0.4000E+01
     -5.324  0.0000E+00  0.4000E+01
     -5.294  0.0000E+00  0.4000E+01
     -5.265  0.0000E+00  0.4000E+01
     -5.235  0.0000E+00  0.4000E+01
     -5.205  0.0000E+00  0.4000E+01
     -5.175  0.0000E+00  0.4000E+01
     -5.145  0.0000E+00  0.4000E+01
     -5.115  0.0000E+00  0.4000E+01
     -5.085  0.0000E+00  0.4000E+01
     -5.055  0.0000E+00  0.4000E+01
     -5.025  0.0000E+00  0.4000E+01
     -4.996  0.0000E+00  0.4000E+01
     -4.966  0.0000E+00  0.4000E+01
     -4.936  0.0000E+00  0.4000E+01
     -4.906  0.0000E+00  0.4000E+01
     -4.876  0.0000E+00  0.4000E+01
     -4.846  0.0000E+00  0.4000E+01
     -4.816  0.0000E+00  0.4000E+01
     -4.786  0.0000E+00  0.4000E+01
     -4.756  0.0000E+00  0.4000E+01
     -4.727  0.0000E+00  0.4000E+01
     -4.697  0.0000E+00  0.4000E+01
     -4.667  0.0000E+00  0.4000E+01
     -4.637  0.0000E+00  0.4000E+01
     -4.607  0.0000E+00  0.4000E+01
     -4.577  0.0000E+00  0.4000E+01
     -4.547  0.0000E+00  0.4000E+01
     -4.517  0.0000E+00  0.4000E+01
     -4.487  0.0000E+00  0.4000E+01
     -4.458  0.0000E+00  0.4000E+01
     -4.428  0.0000E+00  0.4000E+01
     -4.398  0.0000E+00  0.4000E+01
     -4.368  0.0000E+00  0.4000E+01
     -4.338  0.0000E+00  0.4000E+01
     -4.308  0.0000E+00  0.4000E+01
     -4.278  0.0000E+00  0.4000E+01
     -4.248  0.0000E+00  0.4000E+01
     -4.218  0.0000E+00  0.4000E+01
     -4.189  0.0000E+00  0.4000E+01
     -4.159  0.0000E+00  0.4000E+01
     -4.129  0.0000E+00  0.4000E+01
     -4.099  0.0000E+00  0.4000E+01
     -4.069  0.0000E+00  0.4000E+01
     -4.039  0.0000E+00  0.4000E+01
     -4.009  0.0000E+00  0.4000E+01
     -3.979  0.0000E+00  0.4000E+01
     -3.949  0.0000E+00  0.4000E+01
     -3.920  0.0000E+00  0.4000E+01
     -3.890  0.0000E+00  0.4000E+01
     -3.860  0.0000E+00  0.4000E+01
     -3.830  0.0000E+00  0.4000E+01
     -3.800  0.0000E+00  0.4000E+01
     -3.770  0.0000E+00  0.4000E+01
     -3.740  0.0000E+00  0.4000E+01
     -3.710  0.0000E+00  0.4000E+01
     -3.680  0.0000E+00  0.4000E+01
     -3.651  0.0000E+00  0.4000E+01
     -3.621  0.0000E+00  0.4000E+01
     -3.591  0.0000E+00  0.4000E+01
     -3.561  0.0000E+00  0.4000E+01
     -3.531  0.0000E+00  0.4000E+01
     -3.501  0.0000E+00  0.4000E+01
     -3.471  0.0000E+00  0.4000E+01
     -3.441  0.0000E+00  0.4000E+01
     -3.411  0.0000E+00  0.4000E+01
     -3.382  0.0000E+00  0.4000E+01
     -3.352  0.0000E+00  0.4000E+01
     -3.322  0.0000E+00  0.4000E+01
     -3.292  0.0000E+00  0.4000E+01
     -3.262  0.0000E+00  0.4000E+01
     -3.232  0.0000E+00  0.4000E+01
     -3.202  0.0000E+00  0.4000E+01
     -3.172  0.0000E+00  0.4000E+01
     -3.142  0.0000E+00  0.4000E+01
     -3.113  0.0000E+00  0.4000E+01
     -3.083  0.0000E+00  0.4000E+01
     -3.053  0.0000E+00  0.4000E+01
     -3.023  0.0000E+00  0.4000E+01
     -2.993  0.0000E+00  0.4000E+01
     -2.963  0.0000E+00  0.4000E+01
     -2.933  0.0000E+00  0.4000E+01
     -2.903  0.0000E+00  0.4000E+01
     -2.873  0.0000E+00  0.4000E+01
     -2.844  0.0000E+00  0.4000E+01
     -2.814  0.0000E+00  0.4000E+01
     -2.784  0.0000E+00  0.4000E+01
     -2.754  0.0000E+00  0.4000E+01
     -2.724  0.0000E+00  0.4000E+01
     -2.694  0.0000E+00  0.4000E+01
     -2.664  0.0000E+00  0.4000E+01
     -2.634  0.0000E+00  0.4000E+01
     -2.604  0.0000E+00  0.4000E+01
     -2.575  0.0000E+00  0.4000E+01
     -2.545  0.0000E+00  0.4000E+01
     -2.515  0.0000E+00  0.4000E+01
     -2.485  0.0000E+00  0.4000E+01
     -2.455  0.0000E+00  0.4000E+01
     -2.425  0.0000E+00  0.4000E+01
     -2.395  0.0000E+00  0.4000E+01
     -2.365  0.0000E+00  0.4000E+01
     -2.336  0.0000E+00  0.4000E+01
     -2.306  0.0000E+00  0.4000E+01
     -2.276  0.0000E+00  0.4000E+01
     -2.246  0.0000E+00  0.4000E+01
     -2.216  0.0000E+00  0.4000E+01
     -2.186  0.0000E+00  0.4000E+01
     -2.156  0.0000E+00  0.4000E+01
     -2.126  0.0000E+00  0.4000E+01
     -2.096  0.0000E+00  0.4000E+01
     -2.067  0.0000E+00  0.4000E+01
     -2.037  0.0000E+00  0.4000E+01
     -2.007  0.0000E+00  0.4000E+01
     -1.977  0.0000E+00  0.4000E+01
     -1.947  0.0000E+00  0.4000E+01
     -1.917  0.0000E+00  0.4000E+01
     -1.887  0.0000E+00  0.4000E+01
     -1.857  0.0000E+00  0.4000E+01
     -1.827  0.0000E+00  0.4000E+01
     -1.798  0.0000E+00  0.4000E+01
     -1.768  0.0000E+00  0.4000E+01
     -1.738  0.0000E+00  0.4000E+01
     -1.708  0.0000E+00  0.4000E+01
     -1.678  0.0000E+00  0.4000E+01
     -1.648  0.0000E+00  0.4000E+01
     -1.618  0.0000E+00  0.4000E+01
     -1.588  0.0000E+00  0.4000E+01
     -1.558  0.0000E+00  0.4000E+01
     -1.529  0.0000E+00  0.4000E+01
     -1.499  0.0000E+00  0.4000E+01
     -1.469  0.0000E+00  0.4000E+01
     -1.439  0.0000E+00  0.4000E+01
     -1.409  0.0000E+00  0.4000E+01
     -1.379  0.0000E+00  0.4000E+01
     -1.349  0.0000E+00  0.4000E+01
     -1.319  0.0000E+00  0.4000E+01
     -1.289  0.0000E+00  0.4000E+01
     -1.260  0.0000E+00  0.4000E+01
     -1.230  0.0000E+00  0.4000E+01
     -1.200  0.0000E+00  0.4000E+01
     -1.170  0.0000E+00  0.4000E+01
     -1.140  0.0000E+00  0.4000E+01
     -1.110  0.0000E+00  0.4000E+01
     -1.080  0.0000E+00  0.4000E+01
     -1.050  0.0000E+00  0.4000E+01
     -1.020  0.0000E+00  0.4000E+01
     -0.991  0.0000E+00  0.4000E+01
     -0.961  0.0000E+00  0.4000E+01
     -0.931  0.0000E+00  0.4000E+01
     -0.901  0.0000E+00  0.4000E+01
     -0.871  0.0000E+00  0.4000E+01
     -0.841  0.0000E+00  0.4000E+01
     -0.811  0.0000E+00  0.4000E+01
     -0.781  0.0000E+00  0.4000E+01
     -0.751  0.0000E+00  0.4000E+01
     -0.722  0.0000E+00  0.4000E+01
     -0.692  0.0000E+00  0.4000E+01
     -0.662  0.0000E+00  0.4000E+01
     -0.632  0.0000E+00  0.4000E+01
     -0.602  0.0000E+00  0.4000E+01
     -0.572  0.0000E+00  0.4000E+01
     -0.542  0.0000E+00  0.4000E+01
     -0.512  0.0000E+00  0.4000E+01
     -0.482  0.0000E+00  0.4000E+01
     -0.453  0.0000E+00  0.4000E+01
     -0.423  0.0000E+00  0.4000E+01
     -0.393  0.0000E+00  0.4000E+01
     -0.363  0.0000E+00  0.4000E+01
     -0.333  0.0000E+00  0.4000E+01
     -0.303  0.0000E+00  0.4000E+01
     -0.273  0.0000E+00  0.4000E+01
     -0.243  0.0000E+00  0.4000E+01
     -0.213  0.0000E+00  0.4000E+01
     -0.184  0.0000E+00  0.4000E+01
     -0.154  0.0000E+00  0.4000E+01
     -0.124  0.0000E+00  0.4000E+01
     -0.094  0.0000E+00  0.4000E+01
     -0.064  0.0000E+00  0.4000E+01
     -0.034  0.0000E+00  0.4000E+01
     -0.004  0.0000E+00  0.4000E+01
      0.026  0.0000E+00  0.4000E+01
      0.056  0.0000E+00  0.4000E+01
      0.085  0.0000E+00  0.4000E+01
      0.115  0.0000E+00  0.4000E+01
      0.145  0.0000E+00  0.4000E+01
      0.175  0.0000E+00  0.4000E+01
      0.205  0.0000E+00  0.4000E+01
      0.235  0.0000E+00  0.4000E+01
      0.265  0.0000E+00  0.4000E+01
      0.295  0.0000E+00  0.4000E+01
      0.325  0.0000E+00  0.4000E+01
      0.354  0.0000E+00  0.4000E+01
      0.384  0.0000E+00  0.4000E+01
      0.414  0.0000E+00  0.4000E+01
      0.444  0.0000E+00  0.4000E+01
      0.474  0.0000E+00  0.4000E+01
      0.504  0.0000E+00  0.4000E+01
      0.534  0.0000E+00  0.4000E+01
      0.564  0.0000E+00  0.4000E+01
      0.593  0.0000E+00  0.4000E+01
      0.623  0.0000E+00  0.4000E+01
      0.653  0.0000E+00  0.4000E+01
      0.683  0.7962E-13  0.4000E+01
      0.713  0.2891E-03  0.4000E+01
      0.743  0.1403E+00  0.4004E+01
      0.773  0.1430E-01  0.4005E+01
      0.803  0.5503E-02  0.4005E+01
      0.833  0.4639E+00  0.4019E+01
      0.862  0.7666E+00  0.4042E+01
      0.892  0.3418E-02  0.4042E+01
      0.922  0.1010E+01  0.4072E+01
      0.952  0.8486E+00  0.4097E+01
      0.982  0.3584E-03  0.4097E+01
      1.012  0.9169E-03  0.4097E+01
      1.042  0.5078E+00  0.4112E+01
      1.072  0.5921E+00  0.4130E+01
      1.102  0.5684E+00  0.4147E+01
      1.131  0.1196E+01  0.4183E+01
      1.161  0.1884E+01  0.4239E+01
      1.191  0.1703E+01  0.4290E+01
      1.221  0.5866E+00  0.4308E+01
      1.251  0.7056E+00  0.4329E+01
      1.281  0.1852E-02  0.4329E+01
      1.311  0.7387E+00  0.4351E+01
      1.341  0.9396E+00  0.4379E+01
      1.371  0.1239E+01  0.4416E+01
      1.400  0.1374E+01  0.4457E+01
      1.430  0.6834E+00  0.4477E+01
      1.460  0.2080E+01  0.4540E+01
      1.490  0.1881E+01  0.4596E+01
      1.520  0.9247E+00  0.4623E+01
      1.550  0.2687E+01  0.4704E+01
      1.580  0.3916E+01  0.4821E+01
      1.610  0.2870E+01  0.4907E+01
      1.640  0.1921E+01  0.4964E+01
      1.669  0.2623E+01  0.5042E+01
      1.699  0.9531E+00  0.5071E+01
      1.729  0.2973E+00  0.5080E+01
      1.759  0.1106E+01  0.5113E+01
      1.789  0.1546E+01  0.5159E+01
      1.819  0.2868E+01  0.5245E+01
      1.849  0.2811E+01  0.5329E+01
      1.879  0.2098E+01  0.5391E+01
      1.909  0.1481E+01  0.5436E+01
      1.938  0.1626E+01  0.5484E+01
      1.968  0.8723E+00  0.5510E+01
      1.998  0.1819E+01  0.5565E+01
      2.028  0.1612E+01  0.5613E+01
      2.058  0.1408E+01  0.5655E+01
      2.088  0.1640E+01  0.5704E+01
      2.118  0.1569E+01  0.5751E+01
      2.148  0.1781E+01  0.5804E+01
      2.178  0.8646E+00  0.5830E+01
      2.207  0.2558E+01  0.5906E+01
      2.237  0.1395E+01  0.5948E+01
      2.267  0.1251E+01  0.5986E+01
      2.297  0.4599E+00  0.5999E+01
      2.327  0.2560E+01  0.6076E+01
      2.357  0.2023E+01  0.6136E+01
      2.387  0.1124E+01  0.6170E+01
      2.417  0.2512E+00  0.6177E+01
      2.447  0.1217E+01  0.6214E+01
      2.476  0.1416E+01  0.6256E+01
      2.506  0.1275E+01  0.6294E+01
      2.536  0.1777E+01  0.6347E+01
      2.566  0.2802E+00  0.6356E+01
      2.596  0.1058E+01  0.6387E+01
      2.626  0.1629E+01  0.6436E+01
      2.656  0.1738E+01  0.6488E+01
      2.686  0.1835E+01  0.6543E+01
      2.716  0.2714E+01  0.6624E+01
      2.745  0.2081E+01  0.6686E+01
      2.775  0.2650E+01  0.6765E+01
      2.805  0.1935E+01  0.6823E+01
      2.835  0.6691E+00  0.6843E+01
      2.865  0.1527E+01  0.6889E+01
      2.895  0.3556E+00  0.6899E+01
      2.925  0.1379E+01  0.6941E+01
      2.955  0.3015E+01  0.7031E+01
      2.985  0.3247E+01  0.7128E+01
      3.014  0.2136E+01  0.7192E+01
      3.044  0.4475E+00  0.7205E+01
      3.074  0.1074E+01  0.7237E+01
      3.104  0.1824E+01  0.7292E+01
      3.134  0.1006E+01  0.7322E+01
      3.164  0.7465E-01  0.7324E+01
      3.194  0.4268E+00  0.7337E+01
      3.224  0.8875E+00  0.7363E+01
      3.253  0.1551E+01  0.7410E+01
      3.283  0.1867E+01  0.7465E+01
      3.313  0.8990E+00  0.7492E+01
      3.343  0.1463E+00  0.7497E+01
      3.373  0.6952E+00  0.7517E+01
      3.403  0.1228E+01  0.7554E+01
      3.433  0.5892E+00  0.7572E+01
      3.463  0.6135E+00  0.7590E+01
      3.493  0.1386E+01  0.7631E+01
      3.522  0.2890E+00  0.7640E+01
      3.552  0.4429E+00  0.7653E+01
      3.582  0.4677E+00  0.7667E+01
      3.612  0.1419E+01  0.7710E+01
      3.642  0.4407E+00  0.7723E+01
      3.672  0.3234E+00  0.7733E+01
      3.702  0.7918E+00  0.7756E+01
      3.732  0.6841E+00  0.7777E+01
      3.762  0.3387E+00  0.7787E+01
      3.791  0.8987E+00  0.7814E+01
      3.821  0.7902E+00  0.7837E+01
      3.851  0.3787E+00  0.7849E+01
      3.881  0.3508E+00  0.7859E+01
      3.911  0.1254E+01  0.7897E+01
      3.941  0.6178E+00  0.7915E+01
      3.971  0.8517E-01  0.7918E+01
      4.001  0.9714E+00  0.7947E+01
      4.031  0.5485E+00  0.7963E+01
      4.060  0.1004E+01  0.7993E+01
      4.090  0.5055E+00  0.8008E+01
      4.120  0.7988E+00  0.8032E+01
      4.150  0.8983E+00  0.8059E+01
      4.180  0.3967E+00  0.8071E+01
      4.210  0.1933E+01  0.8128E+01
      4.240  0.8608E+00  0.8154E+01
      4.270  0.9857E+00  0.8184E+01
      4.300  0.5221E-01  0.8185E+01
      4.329  0.1170E+00  0.8189E+01
      4.359  0.1879E+00  0.8194E+01
      4.389  0.1902E+01  0.8251E+01
      4.419  0.1570E+01  0.8298E+01
      4.449  0.3114E+00  0.8307E+01
      4.479  0.1929E+01  0.8365E+01
      4.509  0.1130E+01  0.8399E+01
      4.539  0.2512E+00  0.8406E+01
      4.569  0.5683E+00  0.8423E+01
      4.598  0.5794E+00  0.8441E+01
      4.628  0.7726E+00  0.8464E+01
      4.658  0.1491E+01  0.8508E+01
      4.688  0.1685E+01  0.8559E+01
      4.718  0.6304E+00  0.8577E+01
      4.748  0.1126E+01  0.8611E+01
      4.778  0.2239E+01  0.8678E+01
      4.808  0.6937E+00  0.8699E+01
      4.838  0.3612E+00  0.8709E+01
      4.867  0.6916E-01  0.8712E+01
      4.897  0.8736E+00  0.8738E+01
      4.927  0.9282E+00  0.8765E+01
      4.957  0.5924E+00  0.8783E+01
      4.987  0.1159E+01  0.8818E+01
      5.017  0.1008E+01  0.8848E+01
      5.047  0.1143E+00  0.8851E+01
      5.077  0.5701E-01  0.8853E+01
      5.107  0.3579E+00  0.8864E+01
      5.136  0.2297E+01  0.8932E+01
      5.166  0.1352E+01  0.8973E+01
      5.196  0.2347E+01  0.9043E+01
      5.226  0.1743E+00  0.9048E+01
      5.256  0.1784E+00  0.9053E+01
      5.286  0.7424E+00  0.9076E+01
      5.316  0.1464E+01  0.9119E+01
      5.346  0.1361E+01  0.9160E+01
      5.376  0.1886E+01  0.9216E+01
      5.405  0.7648E+00  0.9239E+01
      5.435  0.5982E+00  0.9257E+01
      5.465  0.1362E+01  0.9298E+01
      5.495  0.1031E+01  0.9329E+01
      5.525  0.4554E+00  0.9342E+01
      5.555  0.6229E+00  0.9361E+01
      5.585  0.3629E+00  0.9372E+01
      5.615  0.2301E+01  0.9441E+01
      5.645  0.5281E+00  0.9456E+01
      5.674  0.1100E+01  0.9489E+01
      5.704  0.1171E+01  0.9524E+01
      5.734  0.6342E+00  0.9543E+01
      5.764  0.2597E+00  0.9551E+01
      5.794  0.1191E+00  0.9554E+01
      5.824  0.6148E+00  0.9573E+01
      5.854  0.1723E+01  0.9624E+01
      5.884  0.7907E+00  0.9648E+01
      5.914  0.1267E+01  0.9686E+01
      5.943  0.9182E+00  0.9713E+01
      5.973  0.1955E+01  0.9772E+01
      6.003  0.2878E+01  0.9858E+01
      6.033  0.5115E+00  0.9873E+01
      6.063  0.1343E+01  0.9913E+01
      6.093  0.7965E+00  0.9937E+01
      6.123  0.5687E+00  0.9954E+01
      6.153  0.6440E+00  0.9973E+01
      6.182  0.4835E+00  0.9988E+01
      6.212  0.5034E+00  0.1000E+02
      6.242  0.8452E+00  0.1003E+02
      6.272  0.4656E+00  0.1004E+02
      6.302  0.2878E+00  0.1005E+02
      6.332  0.9557E+00  0.1008E+02
      6.362  0.8964E+00  0.1011E+02
      6.392  0.1087E+01  0.1014E+02
      6.422  0.1065E+01  0.1017E+02
      6.451  0.9361E+00  0.1020E+02
      6.481  0.3835E+00  0.1021E+02
      6.511  0.1325E+01  0.1025E+02
      6.541  0.2325E+01  0.1032E+02
      6.571  0.1714E+01  0.1037E+02
      6.601  0.1330E+01  0.1041E+02
      6.631  0.3297E+00  0.1042E+02
      6.661  0.5955E+00  0.1044E+02
      6.691  0.3883E+00  0.1045E+02
      6.720  0.8615E+00  0.1047E+02
      6.750  0.8715E+00  0.1050E+02
      6.780  0.1293E+01  0.1054E+02
      6.810  0.1465E+01  0.1058E+02
      6.840  0.1596E+01  0.1063E+02
      6.870  0.1026E+01  0.1066E+02
      6.900  0.3000E+01  0.1075E+02
      6.930  0.8188E+00  0.1078E+02
      6.960  0.7074E+00  0.1080E+02
      6.989  0.7849E+00  0.1082E+02
      7.019  0.1122E+00  0.1082E+02
      7.049  0.1471E+01  0.1087E+02
      7.079  0.1091E+01  0.1090E+02
      7.109  0.1223E+01  0.1094E+02
      7.139  0.8892E+00  0.1096E+02
      7.169  0.1101E+01  0.1100E+02
      7.199  0.9247E+00  0.1102E+02
      7.229  0.1913E+01  0.1108E+02
      7.258  0.7663E+00  0.1110E+02
      7.288  0.2082E+00  0.1111E+02
      7.318  0.1346E+01  0.1115E+02
      7.348  0.1587E-02  0.1115E+02
      7.378  0.5263E+00  0.1117E+02
      7.408  0.2319E+01  0.1124E+02
      7.438  0.1804E+01  0.1129E+02
      7.468  0.1064E+01  0.1132E+02
      7.498  0.5077E+00  0.1134E+02
      7.527  0.8128E+00  0.1136E+02
      7.557  0.1782E+01  0.1141E+02
      7.587  0.1337E+01  0.1145E+02
      7.617  0.2112E+01  0.1152E+02
      7.647  0.8332E+00  0.1154E+02
      7.677  0.7402E+00  0.1156E+02
      7.707  0.1029E+01  0.1159E+02
      7.737  0.9916E+00  0.1162E+02
      7.767  0.1283E+01  0.1166E+02
      7.796  0.1110E+01  0.1170E+02
      7.826  0.9996E+00  0.1173E+02
      7.856  0.1536E+01  0.1177E+02
      7.886  0.3764E+00  0.1178E+02
      7.916  0.4170E+00  0.1180E+02
      7.946  0.1330E+01  0.1184E+02
      7.976  0.1245E+01  0.1187E+02
      8.006  0.1507E+01  0.1192E+02
      8.036  0.1523E+01  0.1196E+02
      8.065  0.3732E+00  0.1197E+02
      8.095  0.1739E+01  0.1203E+02
      8.125  0.2743E+01  0.1211E+02
      8.155  0.1705E+01  0.1216E+02
      8.185  0.1282E+01  0.1220E+02
      8.215  0.9392E+00  0.1223E+02
      8.245  0.5548E+00  0.1224E+02
      8.275  0.4554E+00  0.1226E+02
      8.305  0.2816E+00  0.1226E+02
      8.334  0.8275E+00  0.1229E+02
      8.364  0.2468E+01  0.1236E+02
      8.394  0.2041E+01  0.1242E+02
      8.424  0.1390E+01  0.1247E+02
      8.454  0.9988E+00  0.1250E+02
      8.484  0.1560E+01  0.1254E+02
      8.514  0.1217E+01  0.1258E+02
      8.544  0.1973E+01  0.1264E+02
      8.574  0.1156E+01  0.1267E+02
      8.603  0.1078E+01  0.1270E+02
      8.633  0.1170E+01  0.1274E+02
      8.663  0.1546E+01  0.1278E+02
      8.693  0.1520E+01  0.1283E+02
      8.723  0.2604E+00  0.1284E+02
      8.753  0.2240E+01  0.1291E+02
      8.783  0.1050E+01  0.1294E+02
      8.813  0.6176E+00  0.1295E+02
      8.842  0.2188E+01  0.1302E+02
      8.872  0.5832E+00  0.1304E+02
      8.902  0.2351E+01  0.1311E+02
      8.932  0.7065E+00  0.1313E+02
      8.962  0.8573E+00  0.1315E+02
      8.992  0.7984E+00  0.1318E+02
      9.022  0.1324E+01  0.1322E+02
      9.052  0.2550E+01  0.1329E+02
      9.082  0.8413E+00  0.1332E+02
      9.111  0.4702E+00  0.1333E+02
      9.141  0.7001E+00  0.1335E+02
      9.171  0.1204E+01  0.1339E+02
      9.201  0.1271E+01  0.1343E+02
      9.231  0.2355E+01  0.1350E+02
      9.261  0.1264E+01  0.1354E+02
      9.291  0.1562E+01  0.1358E+02
      9.321  0.1464E+01  0.1363E+02
      9.351  0.1300E+01  0.1367E+02
      9.380  0.1989E+01  0.1373E+02
      9.410  0.1069E+01  0.1376E+02
      9.440  0.5412E+00  0.1377E+02
      9.470  0.7888E+00  0.1380E+02
      9.500  0.2518E+01  0.1387E+02
      9.530  0.5843E+00  0.1389E+02
      9.560  0.8890E+00  0.1392E+02
      9.590  0.6501E+00  0.1394E+02
      9.620  0.7370E+00  0.1396E+02
      9.649  0.1114E+01  0.1399E+02
      9.679  0.5521E+00  0.1401E+02
      9.709  0.1253E+01  0.1405E+02
      9.739  0.1243E+01  0.1408E+02
      9.769  0.1571E+01  0.1413E+02
      9.799  0.5950E+00  0.1415E+02
      9.829  0.1885E+01  0.1420E+02
      9.859  0.1948E+01  0.1426E+02
      9.889  0.1490E+01  0.1431E+02
      9.918  0.1209E+01  0.1434E+02
      9.948  0.1728E-01  0.1434E+02
      9.978  0.1296E+01  0.1438E+02
     10.008  0.6774E+00  0.1440E+02
     10.038  0.1430E+01  0.1444E+02
     10.068  0.4092E+00  0.1446E+02
     10.098  0.1856E+01  0.1451E+02
     10.128  0.1173E+01  0.1455E+02
     10.158  0.3251E+01  0.1464E+02
     10.187  0.1582E+01  0.1469E+02
     10.217  0.2055E+01  0.1475E+02
     10.247  0.1420E+01  0.1480E+02
     10.277  0.4605E+00  0.1481E+02
     10.307  0.1350E+01  0.1485E+02
     10.337  0.5040E+00  0.1486E+02
     10.367  0.5905E+00  0.1488E+02
     10.397  0.1033E+01  0.1491E+02
     10.427  0.9466E+00  0.1494E+02
     10.456  0.1326E+01  0.1498E+02
     10.486  0.1617E+01  0.1503E+02
     10.516  0.1916E+01  0.1509E+02
     10.546  0.1733E+01  0.1514E+02
     10.576  0.1692E+01  0.1519E+02
     10.606  0.1256E+01  0.1523E+02
     10.636  0.4226E+00  0.1524E+02
     10.666  0.5614E+00  0.1526E+02
     10.696  0.1079E+01  0.1529E+02
     10.725  0.1027E+01  0.1532E+02
     10.755  0.1577E+01  0.1537E+02
     10.785  0.1395E+01  0.1541E+02
     10.815  0.2610E+00  0.1542E+02
     10.845  0.7685E+00  0.1544E+02
     10.875  0.2554E+01  0.1551E+02
     10.905  0.2059E+01  0.1558E+02
     10.935  0.1262E+01  0.1561E+02
     10.965  0.1674E+01  0.1566E+02
     10.994  0.2157E+01  0.1573E+02
     11.024  0.2090E+01  0.1579E+02
     11.054  0.2046E+01  0.1585E+02
     11.084  0.1327E+01  0.1589E+02
     11.114  0.1809E+01  0.1595E+02
     11.144  0.1441E+01  0.1599E+02
     11.174  0.1507E+01  0.1603E+02
     11.204  0.1784E+01  0.1609E+02
     11.234  0.7343E+00  0.1611E+02
     11.263  0.5103E-01  0.1611E+02
     11.293  0.1144E+01  0.1615E+02
     11.323  0.7349E+00  0.1617E+02
     11.353  0.1202E+01  0.1620E+02
     11.383  0.1567E+01  0.1625E+02
     11.413  0.1252E+01  0.1629E+02
     11.443  0.5646E+00  0.1630E+02
     11.473  0.1038E+01  0.1634E+02