    4    4    1    1
  0.1177524E+02  0.3380942E-09  0.3380942E-09  0.4120540E-09  0.5000000E-15
   1.0000000000000000E-004
  CAR 
 unknown system                          
      4    196     32

  0.3742002E-15  0.3742002E-15  0.3742002E-15  0.5787037E-03
    1      -10.469038   1.000000
    2       -8.048837   1.000000
    3        1.925186   0.000000
    4        5.521756   0.000000
    5        7.371250   0.000000
    6        8.002969   0.000000
    7        8.002969   0.000000
    8        8.868591   0.000000
    9       10.288101   0.000000
   10       15.388793   0.000000
   11       15.388793   0.000000
   12       17.437165   0.000000
   13       17.437165   0.000000
   14       18.913348   0.000000
   15       19.367697   0.000000
   16       21.480636   0.000000
   17       22.044950   0.000000
   18       22.188075   0.000000
   19       22.188075   0.000000
   20       23.285565   0.000000
   21       24.337636   0.000000
   22       29.026354   0.000000
   23       29.276394   0.000000
   24       29.276394   0.000000
   25       29.768155   0.000000
   26       29.768155   0.000000
   27       30.091062   0.000000
   28       30.551569   0.000000
   29       31.229797   0.000000
   30       37.588849   0.000000
   31       39.631362   0.000000
   32       43.845086   0.000000

  0.8333333E-01  0.3742002E-15  0.3742002E-15  0.2314815E-02
    1      -10.415452   1.000000
    2       -8.050348   1.000000
    3        2.006771   0.000000
    4        5.394617   0.000000
    5        6.539038   0.000000
    6        8.091097   0.000000
    7        8.259926   0.000000
    8        8.684909   0.000000
    9       11.225823   0.000000
   10       15.199872   0.000000
   11       15.322341   0.000000
   12       16.862380   0.000000
   13       17.527184   0.000000
   14       19.175256   0.000000
   15       20.163379   0.000000
   16       20.356316   0.000000
   17       20.360761   0.000000
   18       22.843460   0.000000
   19       23.692749   0.000000
   20       24.031622   0.000000
   21       24.215118   0.000000
   22       27.756098   0.000000
   23       28.304387   0.000000
   24       29.122966   0.000000
   25       30.076671   0.000000
   26       30.187586   0.000000
   27       30.243898   0.000000
   28       32.251029   0.000000
   29       32.866334   0.000000
   30       37.463051   0.000000
   31       39.211690   0.000000
   32       42.051445   0.000000

  0.1666667E+00  0.3742002E-15  0.3742002E-15  0.2314815E-02
    1      -10.261705   1.000000
    2       -8.121762   1.000000
    3        2.242304   0.000000
    4        5.044374   0.000000
    5        5.378059   0.000000
    6        8.187122   0.000000
    7        8.352860   0.000000
    8        8.581890   0.000000
    9       13.148157   0.000000
   10       14.846790   0.000000
   11       15.017611   0.000000
   12       16.231637   0.000000
   13       17.799475   0.000000
   14       17.981092   0.000000
   15       19.126551   0.000000
   16       21.115895   0.000000
   17       21.794152   0.000000
   18       22.218427   0.000000
   19       22.372525   0.000000
   20       25.916012   0.000000
   21       26.390538   0.000000
   22       26.464487   0.000000
   23       26.565923   0.000000
   24       29.431413   0.000000
   25       30.486621   0.000000
   26       31.261095   0.000000
   27       31.789589   0.000000
   28       34.619230   0.000000
   29       35.219608   0.000000
   30       37.184136   0.000000
   31       38.176653   0.000000
   32       38.179886   0.000000

  0.2500000E+00  0.3742002E-15  0.3742002E-15  0.2314815E-02
    1      -10.029986   1.000000
    2       -8.250093   1.000000
    3        2.636060   0.000000
    4        4.420407   0.000000
    5        4.556906   0.000000
    6        7.427293   0.000000
    7        8.787344   0.000000
    8        9.038855   0.000000
    9       14.291047   0.000000
   10       14.368629   0.000000
   11       15.457503   0.000000
   12       16.002282   0.000000
   13       16.839008   0.000000
   14       18.253175   0.000000
   15       18.642938   0.000000
   16       20.574765   0.000000
   17       20.975968   0.000000
   18       23.010689   0.000000
   19       24.229423   0.000000
   20       24.375222   0.000000
   21       24.763983   0.000000
   22       28.884434   0.000000
   23       29.133700   0.000000
   24       29.979316   0.000000
   25       31.032354   0.000000
   26       32.050623   0.000000
   27       33.621899   0.000000
   28       34.399549   0.000000
   29       37.121236   0.000000
   30       37.177030   0.000000
   31       37.201573   0.000000
   32       37.761904   0.000000

  0.3333333E+00  0.3742002E-15  0.3742002E-15  0.2314815E-02
    1       -9.739893   1.000000
    2       -8.441958   1.000000
    3        3.181628   0.000000
    4        3.765270   0.000000
    5        4.045416   0.000000
    6        6.512941   0.000000
    7        9.391643   0.000000
    8        9.658675   0.000000
    9       13.242274   0.000000
   10       13.517912   0.000000
   11       16.160035   0.000000
   12       16.482764   0.000000
   13       17.942468   0.000000
   14       18.820584   0.000000
   15       18.887689   0.000000
   16       19.379206   0.000000
   17       19.775698   0.000000
   18       22.724307   0.000000
   19       23.232879   0.000000
   20       25.261525   0.000000
   21       26.621182   0.000000
   22       30.695659   0.000000
   23       30.859698   0.000000
   24       31.056845   0.000000
   25       31.901446   0.000000
   26       32.014939   0.000000
   27       32.382212   0.000000
   28       34.111145   0.000000
   29       37.249890   0.000000
   30       37.996503   0.000000
   31       38.314116   0.000000
   32       39.873613   0.000000

  0.4166667E+00  0.3742002E-15  0.3742002E-15  0.2314815E-02
    1       -9.396151   1.000000
    2       -8.709677   1.000000
    3        3.433053   0.000000
    4        3.633609   0.000000
    5        3.864276   0.000000
    6        5.571919   0.000000
    7       10.159672   0.000000
    8       10.442136   0.000000
    9       12.125526   0.000000
   10       12.435762   0.000000
   11       16.634134   0.000000
   12       16.784474   0.000000
   13       18.288253   0.000000
   14       18.347861   0.000000
   15       19.417791   0.000000
   16       19.703642   0.000000
   17       21.044172   0.000000
   18       21.410534   0.000000
   19       21.877829   0.000000
   20       27.022334   0.000000
   21       28.070731   0.000000
   22       28.654429   0.000000
   23       31.287957   0.000000
   24       32.214774   0.000000
   25       32.325844   0.000000
   26       32.738560   0.000000
   27       34.859075   0.000000
   28       34.988371   0.000000
   29       35.240452   0.000000
   30       37.507114   0.000000
   31       39.377725   0.000000
   32       39.445917   0.000000

  0.5000000E+00  0.3742002E-15  0.3742002E-15  0.1157407E-02
    1       -9.044737   1.000000
    2       -9.044737   1.000000
    3        3.404080   0.000000
    4        3.404080   0.000000
    5        4.669010   0.000000
    6        4.669010   0.000000
    7       11.078178   0.000000
    8       11.078178   0.000000
    9       11.377654   0.000000
   10       11.377654   0.000000
   11       17.356517   0.000000
   12       17.356517   0.000000
   13       17.457645   0.000000
   14       17.457645   0.000000
   15       20.298949   0.000000
   16       20.298949   0.000000
   17       20.700053   0.000000
   18       20.700053   0.000000
   19       24.012219   0.000000
   20       24.012219   0.000000
   21       30.181077   0.000000
   22       30.181077   0.000000
   23       30.459065   0.000000
   24       30.459065   0.000000
   25       33.438888   0.000000
   26       33.438888   0.000000
   27       34.602975   0.000000
   28       34.602975   0.000000
   29       37.997042   0.000000
   30       37.997042   0.000000
   31       38.012399   0.000000
   32       38.012399   0.000000

  0.8333333E-01  0.8333333E-01  0.3742002E-15  0.2314815E-02
    1      -10.363820   1.000000
    2       -8.081688   1.000000
    3        2.082715   0.000000
    4        5.275931   0.000000
    5        6.523071   0.000000
    6        6.865421   0.000000
    7        8.540894   0.000000
    8        9.385827   0.000000
    9       11.785824   0.000000
   10       14.668840   0.000000
   11       15.659454   0.000000
   12       16.189099   0.000000
   13       18.064687   0.000000
   14       18.354758   0.000000
   15       19.674292   0.000000
   16       20.980137   0.000000
   17       22.070073   0.000000
   18       22.318061   0.000000
   19       22.688304   0.000000
   20       22.940782   0.000000
   21       26.211201   0.000000
   22       28.112920   0.000000
   23       28.224045   0.000000
   24       29.222250   0.000000
   25       29.447917   0.000000
   26       29.937259   0.000000
   27       30.286170   0.000000
   28       33.574870   0.000000
   29       33.896880   0.000000
   30       37.455335   0.000000
   31       38.953093   0.000000
   32       41.596519   0.000000

  0.1666667E+00  0.8333333E-01  0.3742002E-15  0.4629630E-02
    1      -10.219277   1.000000
    2       -8.136904   1.000000
    3        2.319490   0.000000
    4        4.939605   0.000000
    5        5.447224   0.000000
    6        6.941922   0.000000
    7        8.102486   0.000000
    8       10.102644   0.000000
    9       13.408665   0.000000
   10       14.084470   0.000000
   11       15.446393   0.000000
   12       15.517617   0.000000
   13       17.177755   0.000000
   14       18.601481   0.000000
   15       20.134977   0.000000
   16       21.178657   0.000000
   17       21.531853   0.000000
   18       21.697706   0.000000
   19       22.554917   0.000000
   20       24.793161   0.000000
   21       26.844723   0.000000
   22       27.013972   0.000000
   23       28.532888   0.000000
   24       29.529092   0.000000
   25       30.596501   0.000000
   26       30.789567   0.000000
   27       30.853445   0.000000
   28       35.459041   0.000000
   29       35.713685   0.000000
   30       37.723856   0.000000
   31       38.203733   0.000000
   32       38.228891   0.000000

  0.2500000E+00  0.8333333E-01  0.3742002E-15  0.4629630E-02
    1       -9.988257   1.000000
    2       -8.255982   1.000000
    3        2.711856   0.000000
    4        4.457276   0.000000
    5        4.475491   0.000000
    6        7.378539   0.000000
    7        7.400563   0.000000
    8       10.675259   0.000000
    9       13.253870   0.000000
   10       14.934730   0.000000
   11       15.246486   0.000000
   12       15.619215   0.000000
   13       16.445401   0.000000
   14       19.145948   0.000000
   15       19.820353   0.000000
   16       19.887229   0.000000
   17       20.086176   0.000000
   18       23.152755   0.000000
   19       24.604515   0.000000
   20       25.261188   0.000000
   21       25.499175   0.000000
   22       27.338150   0.000000
   23       30.070734   0.000000
   24       30.740200   0.000000
   25       31.427409   0.000000
   26       31.813366   0.000000
   27       32.852704   0.000000
   28       34.483003   0.000000
   29       36.281703   0.000000
   30       36.716250   0.000000
   31       38.557971   0.000000
   32       39.178183   0.000000

  0.3333333E+00  0.8333333E-01  0.3742002E-15  0.4629630E-02
    1       -9.690919   1.000000
    2       -8.444861   1.000000
    3        3.252755   0.000000
    4        3.779800   0.000000
    5        3.992755   0.000000
    6        6.538147   0.000000
    7        7.996217   0.000000
    8       11.325035   0.000000
    9       12.071092   0.000000
   10       14.661684   0.000000
   11       15.379025   0.000000
   12       15.798706   0.000000
   13       17.958646   0.000000
   14       18.638883   0.000000
   15       18.956193   0.000000
   16       19.810778   0.000000
   17       19.947851   0.000000
   18       23.801692   0.000000
   19       24.057245   0.000000
   20       25.300065   0.000000
   21       26.809004   0.000000
   22       29.984677   0.000000
   23       30.826601   0.000000
   24       30.946351   0.000000
   25       31.754091   0.000000
   26       32.003177   0.000000
   27       33.948497   0.000000
   28       34.008267   0.000000
   29       36.622187   0.000000
   30       37.223203   0.000000
   31       37.967573   0.000000
   32       40.925097   0.000000

  0.4166667E+00  0.8333333E-01  0.3742002E-15  0.4629630E-02
    1       -9.355847   1.000000
    2       -8.702064   1.000000
    3        3.428158   0.000000
    4        3.597017   0.000000
    5        3.929787   0.000000
    6        5.619093   0.000000
    7        8.787935   0.000000
    8       10.854406   0.000000
    9       12.101021   0.000000
   10       13.950614   0.000000
   11       15.844138   0.000000
   12       15.883919   0.000000
   13       17.465591   0.000000
   14       17.516752   0.000000
   15       20.521688   0.000000
   16       20.627630   0.000000
   17       21.053548   0.000000
   18       22.546680   0.000000
   19       22.753228   0.000000
   20       27.100153   0.000000
   21       28.088438   0.000000
   22       28.818544   0.000000
   23       31.374168   0.000000
   24       32.080015   0.000000
   25       32.403867   0.000000
   26       32.753909   0.000000
   27       33.493048   0.000000
   28       35.158140   0.000000
   29       36.915529   0.000000
   30       37.566816   0.000000
   31       38.503319   0.000000
   32       38.721194   0.000000

  0.5000000E+00  0.8333333E-01  0.3742002E-15  0.2314815E-02
    1       -9.014312   1.000000
    2       -9.014312   1.000000
    3        3.383871   0.000000
    4        3.383871   0.000000
    5        4.733571   0.000000
    6        4.733571   0.000000
    7        9.745878   0.000000
    8        9.745878   0.000000
    9       12.997650   0.000000
   10       12.997650   0.000000
   11       16.539235   0.000000
   12       16.539235   0.000000
   13       16.574109   0.000000
   14       16.574109   0.000000
   15       21.376446   0.000000
   16       21.376446   0.000000
   17       21.609336   0.000000
   18       21.609336   0.000000
   19       24.123208   0.000000
   20       24.123208   0.000000
   21       30.318800   0.000000
   22       30.318800   0.000000
   23       30.456581   0.000000
   24       30.456581   0.000000
   25       33.406956   0.000000
   26       33.406956   0.000000
   27       34.682367   0.000000
   28       34.682367   0.000000
   29       36.425546   0.000000
   30       36.425546   0.000000
   31       39.904343   0.000000
   32       39.904343   0.000000

  0.1666667E+00  0.1666667E+00  0.3742002E-15  0.2314815E-02
    1      -10.079677   1.000000
    2       -8.206377   1.000000
    3        2.550294   0.000000
    4        4.654379   0.000000
    5        5.361781   0.000000
    6        5.974436   0.000000
    7        7.812273   0.000000
    8       11.512450   0.000000
    9       13.436467   0.000000
   10       14.368924   0.000000
   11       14.394453   0.000000
   12       14.642239   0.000000
   13       17.499217   0.000000
   14       19.699055   0.000000
   15       19.908519   0.000000
   16       20.035880   0.000000
   17       20.901797   0.000000
   18       22.976715   0.000000
   19       23.621130   0.000000
   20       24.314202   0.000000
   21       27.565947   0.000000
   22       28.051070   0.000000
   23       29.823648   0.000000
   24       29.957460   0.000000
   25       30.439993   0.000000
   26       30.544915   0.000000
   27       31.194579   0.000000
   28       35.638891   0.000000
   29       37.062791   0.000000
   30       37.927669   0.000000
   31       38.666510   0.000000
   32       39.251490   0.000000

  0.2500000E+00  0.1666667E+00  0.3742002E-15  0.4629630E-02
    1       -9.858632   1.000000
    2       -8.288670   1.000000
    3        2.937837   0.000000
    4        4.248257   0.000000
    5        4.471223   0.000000
    6        6.276336   0.000000
    7        7.297193   0.000000
    8       12.482015   0.000000
    9       12.492066   0.000000
   10       13.586700   0.000000
   11       14.162491   0.000000
   12       16.181167   0.000000
   13       17.674532   0.000000
   14       18.545654   0.000000
   15       18.572260   0.000000
   16       20.606036   0.000000
   17       21.311387   0.000000
   18       23.667458   0.000000
   19       25.347530   0.000000
   20       26.362714   0.000000
   21       26.839068   0.000000
   22       27.126428   0.000000
   23       30.351912   0.000000
   24       31.246024   0.000000
   25       31.296704   0.000000
   26       31.479823   0.000000
   27       33.466100   0.000000
   28       34.747473   0.000000
   29       35.702336   0.000000
   30       36.690075   0.000000
   31       39.099277   0.000000
   32       40.104556   0.000000

  0.3333333E+00  0.1666667E+00  0.3742002E-15  0.4629630E-02
    1       -9.577545   1.000000
    2       -8.438734   1.000000
    3        3.470673   0.000000
    4        3.769845   0.000000
    5        3.817626   0.000000
    6        6.570233   0.000000
    7        6.886250   0.000000
    8       11.111770   0.000000
    9       13.263372   0.000000
   10       13.645123   0.000000
   11       14.140587   0.000000
   12       17.117336   0.000000
   13       17.129684   0.000000
   14       17.263838   0.000000
   15       18.688068   0.000000
   16       21.437674   0.000000
   17       21.704126   0.000000
   18       25.389733   0.000000
   19       25.637020   0.000000
   20       25.753252   0.000000
   21       27.405898   0.000000
   22       28.963708   0.000000
   23       31.073123   0.000000
   24       31.197185   0.000000
   25       31.965920   0.000000
   26       32.000249   0.000000
   27       33.261310   0.000000
   28       35.984808   0.000000
   29       36.207631   0.000000
   30       36.276758   0.000000
   31       37.379548   0.000000
   32       39.568635   0.000000

  0.4166667E+00  0.1666667E+00  0.3742002E-15  0.4629630E-02
    1       -9.263207   1.000000
    2       -8.663090   1.000000
    3        3.382282   0.000000
    4        3.467792   0.000000
    5        4.134945   0.000000
    6        5.739196   0.000000
    7        7.685596   0.000000
    8        9.810483   0.000000
    9       14.025365   0.000000
   10       14.049342   0.000000
   11       14.514580   0.000000
   12       16.060597   0.000000
   13       16.131696   0.000000
   14       16.234996   0.000000
   15       21.368988   0.000000
   16       22.324847   0.000000
   17       22.386718   0.000000
   18       24.429939   0.000000
   19       24.496312   0.000000
   20       27.298552   0.000000
   21       28.106039   0.000000
   22       29.335865   0.000000
   23       31.530723   0.000000
   24       31.657396   0.000000
   25       32.631540   0.000000
   26       32.723933   0.000000
   27       33.156120   0.000000
   28       34.884318   0.000000
   29       37.037108   0.000000
   30       37.310807   0.000000
   31       38.053684   0.000000
   32       38.779633   0.000000

  0.5000000E+00  0.1666667E+00  0.3742002E-15  0.2314815E-02
    1       -8.945061   1.000000
    2       -8.945061   1.000000
    3        3.297821   0.000000
    4        3.297821   0.000000
    5        4.904915   0.000000
    6        4.904915   0.000000
    7        8.662928   0.000000
    8        8.662928   0.000000
    9       14.474860   0.000000
   10       14.474860   0.000000
   11       15.200391   0.000000
   12       15.200391   0.000000
   13       15.561478   0.000000
   14       15.561478   0.000000
   15       23.233716   0.000000
   16       23.233716   0.000000
   17       23.318104   0.000000
   18       23.318104   0.000000
   19       24.496409   0.000000
   20       24.496409   0.000000
   21       30.359109   0.000000
   22       30.359109   0.000000
   23       30.741078   0.000000
   24       30.741078   0.000000
   25       33.286345   0.000000
   26       33.286345   0.000000
   27       34.911696   0.000000
   28       34.911696   0.000000
   29       35.529157   0.000000
   30       35.529157   0.000000
   31       39.008797   0.000000
   32       39.008797   0.000000

  0.2500000E+00  0.2500000E+00  0.3742002E-15  0.2314815E-02
    1       -9.654895   1.000000
    2       -8.352423   1.000000
    3        3.312121   0.000000
    4        3.911537   0.000000
    5        4.134850   0.000000
    6        5.978777   0.000000
    7        7.028532   0.000000
    8       11.832676   0.000000
    9       12.334932   0.000000
   10       13.396513   0.000000
   11       14.016554   0.000000
   12       17.126966   0.000000
   13       17.148591   0.000000
   14       17.393177   0.000000
   15       18.887908   0.000000
   16       21.936332   0.000000
   17       22.097299   0.000000
   18       24.550925   0.000000
   19       26.690314   0.000000
   20       26.914834   0.000000
   21       27.563657   0.000000
   22       28.491146   0.000000
   23       30.787764   0.000000
   24       30.835638   0.000000
   25       31.261270   0.000000
   26       31.723592   0.000000
   27       34.482193   0.000000
   28       35.520644   0.000000
   29       35.843044   0.000000
   30       36.165566   0.000000
   31       36.535421   0.000000
   32       38.710655   0.000000

  0.3333333E+00  0.2500000E+00  0.3742002E-15  0.4629630E-02
    1       -9.402447   1.000000
    2       -8.445520   1.000000
    3        3.540342   0.000000
    4        3.592607   0.000000
    5        3.824457   0.000000
    6        6.376607   0.000000
    7        6.555705   0.000000
    8       10.468043   0.000000
    9       12.296444   0.000000
   10       13.110582   0.000000
   11       14.828759   0.000000
   12       15.862618   0.000000
   13       16.143378   0.000000
   14       19.034986   0.000000
   15       19.405365   0.000000
   16       22.947423   0.000000
   17       23.057236   0.000000
   18       25.735360   0.000000
   19       27.094167   0.000000
   20       27.772708   0.000000
   21       28.509442   0.000000
   22       28.937940   0.000000
   23       31.469799   0.000000
   24       31.620521   0.000000
   25       31.970057   0.000000
   26       32.200338   0.000000
   27       32.444738   0.000000
   28       35.668032   0.000000
   29       35.855070   0.000000
   30       35.858890   0.000000
   31       36.384433   0.000000
   32       38.848777   0.000000

  0.4166667E+00  0.2500000E+00  0.3742002E-15  0.4629630E-02
    1       -9.119675   1.000000
    2       -8.620505   1.000000
    3        3.221119   0.000000
    4        3.241773   0.000000
    5        4.455715   0.000000
    6        5.899136   0.000000
    7        7.101165   0.000000
    8        9.172721   0.000000
    9       12.690454   0.000000
   10       13.300902   0.000000
   11       14.239688   0.000000
   12       14.753619   0.000000
   13       16.541153   0.000000
   14       18.331888   0.000000
   15       21.966892   0.000000
   16       24.077980   0.000000
   17       24.087515   0.000000
   18       26.133333   0.000000
   19       26.550282   0.000000
   20       27.499700   0.000000
   21       28.252595   0.000000
   22       30.303133   0.000000
   23       31.399441   0.000000
   24       32.148388   0.000000
   25       32.400435   0.000000
   26       32.993214   0.000000
   27       33.432746   0.000000
   28       34.446678   0.000000
   29       35.815572   0.000000
   30       36.403685   0.000000
   31       36.486481   0.000000
   32       38.393044   0.000000

  0.5000000E+00  0.2500000E+00  0.3742002E-15  0.2314815E-02
    1       -8.850937   1.000000
    2       -8.850937   1.000000
    3        3.111717   0.000000
    4        3.111717   0.000000
    5        5.164952   0.000000
    6        5.164952   0.000000
    7        8.043110   0.000000
    8        8.043110   0.000000
    9       13.369224   0.000000
   10       13.369224   0.000000
   11       13.878950   0.000000
   12       13.878950   0.000000
   13       17.414640   0.000000
   14       17.414640   0.000000
   15       24.661081   0.000000
   16       24.661081   0.000000
   17       25.092879   0.000000
   18       25.092879   0.000000
   19       25.558984   0.000000
   20       25.558984   0.000000
   21       30.021904   0.000000
   22       30.021904   0.000000
   23       31.517654   0.000000
   24       31.517654   0.000000
   25       33.312833   0.000000
   26       33.312833   0.000000
   27       35.254650   0.000000
   28       35.254650   0.000000
   29       35.350253   0.000000
   30       35.350253   0.000000
   31       36.875464   0.000000
   32       36.875464   0.000000

  0.3333333E+00  0.3333333E+00  0.3742002E-15  0.2314815E-02
    1       -9.194111   1.000000
    2       -8.481801   1.000000
    3        3.219097   0.000000
    4        3.246993   0.000000
    5        4.304461   0.000000
    6        6.380502   0.000000
    7        6.504116   0.000000
    8        9.808557   0.000000
    9       11.509077   0.000000
   10       12.498061   0.000000
   11       14.099633   0.000000
   12       14.601218   0.000000
   13       17.324176   0.000000
   14       20.515317   0.000000
   15       20.790453   0.000000
   16       23.430136   0.000000
   17       24.441421   0.000000
   18       26.786883   0.000000
   19       27.739033   0.000000
   20       28.893028   0.000000
   21       30.140608   0.000000
   22       30.143562   0.000000
   23       31.567759   0.000000
   24       31.865737   0.000000
   25       32.250023   0.000000
   26       32.348803   0.000000
   27       32.818744   0.000000
   28       33.095574   0.000000
   29       34.577444   0.000000
   30       35.671302   0.000000
   31       36.101575   0.000000
   32       37.756069   0.000000

  0.4166667E+00  0.3333333E+00  0.3742002E-15  0.4629630E-02
    1       -8.961187   1.000000
    2       -8.587046   1.000000
    3        2.952682   0.000000
    4        2.958926   0.000000
    5        4.872843   0.000000
    6        6.009746   0.000000
    7        7.058140   0.000000
    8        8.850046   0.000000
    9       11.564907   0.000000
   10       12.400998   0.000000
   11       13.016833   0.000000
   12       13.552125   0.000000
   13       18.618714   0.000000
   14       20.508119   0.000000
   15       22.946716   0.000000
   16       24.753910   0.000000
   17       25.604456   0.000000
   18       27.413066   0.000000
   19       28.119805   0.000000
   20       28.174882   0.000000
   21       28.802954   0.000000
   22       31.834243   0.000000
   23       31.959258   0.000000
   24       32.190279   0.000000
   25       32.853632   0.000000
   26       33.016537   0.000000
   27       33.436661   0.000000
   28       33.482089   0.000000
   29       34.026249   0.000000
   30       35.483877   0.000000
   31       36.004418   0.000000
   32       36.454187   0.000000

  0.5000000E+00  0.3333333E+00  0.3742002E-15  0.2314815E-02
    1       -8.746835   1.000000
    2       -8.746835   1.000000
    3        2.851006   0.000000
    4        2.851006   0.000000
    5        5.467360   0.000000
    6        5.467360   0.000000
    7        7.874802   0.000000
    8        7.874802   0.000000
    9       12.136510   0.000000
   10       12.136510   0.000000
   11       12.786183   0.000000
   12       12.786183   0.000000
   13       19.678452   0.000000
   14       19.678452   0.000000
   15       25.535084   0.000000
   16       25.535084   0.000000
   17       26.599277   0.000000
   18       26.599277   0.000000
   19       26.757226   0.000000
   20       26.757226   0.000000
   21       29.939963   0.000000
   22       29.939963   0.000000
   23       32.708170   0.000000
   24       32.708170   0.000000
   25       33.575774   0.000000
   26       33.575774   0.000000
   27       34.158368   0.000000
   28       34.158368   0.000000
   29       35.594409   0.000000
   30       35.594409   0.000000
   31       35.832731   0.000000
   32       35.832731   0.000000

  0.4166667E+00  0.4166667E+00  0.3742002E-15  0.2314815E-02
    1       -8.794488   1.000000
    2       -8.588180   1.000000
    3        2.711726   0.000000
    4        2.720275   0.000000
    5        5.326752   0.000000
    6        5.972759   0.000000
    7        7.420992   0.000000
    8        8.540079   0.000000
    9       11.004770   0.000000
   10       11.954702   0.000000
   11       11.957145   0.000000
   12       12.614770   0.000000
   13       20.474787   0.000000
   14       22.059529   0.000000
   15       24.526837   0.000000
   16       24.927928   0.000000
   17       26.784802   0.000000
   18       27.886983   0.000000
   19       27.966703   0.000000
   20       29.243616   0.000000
   21       29.548216   0.000000
   22       30.275195   0.000000
   23       32.027132   0.000000
   24       32.305682   0.000000
   25       33.528143   0.000000
   26       33.801008   0.000000
   27       33.855051   0.000000
   28       33.961719   0.000000
   29       34.114655   0.000000
   30       34.557911   0.000000
   31       36.204602   0.000000
   32       36.404784   0.000000

  0.5000000E+00  0.4166667E+00  0.3742002E-15  0.2314815E-02
    1       -8.669459   1.000000
    2       -8.669459   1.000000
    3        2.622365   0.000000
    4        2.622365   0.000000
    5        5.724125   0.000000
    6        5.724125   0.000000
    7        7.996335   0.000000
    8        7.996335   0.000000
    9       11.208953   0.000000
   10       11.208953   0.000000
   11       12.044084   0.000000
   12       12.044084   0.000000
   13       21.772559   0.000000
   14       21.772559   0.000000
   15       26.287972   0.000000
   16       26.287972   0.000000
   17       26.941685   0.000000
   18       26.941685   0.000000
   19       27.580041   0.000000
   20       27.580041   0.000000