       N       E                     dE             d eps       ncg     rms          rms(c)
DIA:   1    -0.144372244163E+02   -0.14437E+02    0.00000E+00     0   0.000E+00
DIA:   2    -0.144372244163E+02    0.28990E-11    0.00000E+00     0   0.000E+00
DIA:   3    -0.144372244163E+02   -0.25011E-11    0.00000E+00     0   0.000E+00
DIA:   4    -0.144372244163E+02    0.51728E-11    0.00000E+00     0   0.000E+00
DIA:   5    -0.144372244163E+02   -0.11369E-12    0.00000E+00     0   0.000E+00    0.622E+00
DIA:   6    -0.137386247248E+02    0.69860E+00    0.00000E+00     0   0.000E+00    0.345E+00
DIA:   7    -0.134064530827E+02    0.33217E+00    0.00000E+00     0   0.000E+00    0.384E-01
DIA:   8    -0.134135197705E+02   -0.70667E-02    0.00000E+00     0   0.000E+00    0.219E-01
DIA:   9    -0.134120747279E+02    0.14450E-02    0.00000E+00     0   0.000E+00    0.153E-02
DIA:  10    -0.134121060835E+02   -0.31356E-04    0.00000E+00     0   0.000E+00
   1 F= -.13412106E+02 E0= -.13412106E+02  d E =-.118953E-23
 imaginary and real dielectric function
