 vasp.5.4.4.18Apr17-6-g9f103f2a35 (build Sep 28 2022 22:23:22) complex           
 executed on             LinuxGNU date 2022.12.13  21:04:54
 running on    1 total cores
 distrk:  each k-point on    1 cores,    1 groups
 distr:  one band on NCORES_PER_BAND=   1 cores,    1 groups


--------------------------------------------------------------------------------------------------------


 INCAR:
 POTCAR:    PAW_PBE H 15Jun2001                   
 POTCAR:    PAW_PBE H 15Jun2001                   
   VRHFIN =H: ultrasoft test                                                    
   LEXCH  = PE                                                                  
   EATOM  =    12.4884 eV,    0.9179 Ry                                         
                                                                                
   TITEL  = PAW_PBE H 15Jun2001                                                 
   LULTRA =        F    use ultrasoft PP ?                                      
   IUNSCR =        0    unscreen: 0-lin 1-nonlin 2-no                           
   RPACOR =    0.000    partial core radius                                     
   POMASS =    1.000; ZVAL   =    1.000    mass and valenz                      
   RCORE  =    1.100    outmost cutoff radius                                   
   RWIGS  =    0.700; RWIGS  =    0.370    wigner-seitz radius (au A)           
   ENMAX  =  250.000; ENMIN  =  200.000 eV                                      
   RCLOC  =    0.701    cutoff for local pot                                    
   LCOR   =        T    correct aug charges                                     
   LPAW   =        T    paw PP                                                  
   EAUG   =  400.000                                                            
   RMAX   =    1.123    core radius for proj-oper                               
   RAUG   =    1.200    factor for augmentation sphere                          
   RDEP   =    1.112    radius for radial grids                                 
   RDEPT  =    0.926    core radius for aug-charge                              
                                                                                
   Atomic configuration                                                         
    2 entries                                                                   
     n  l   j            E        occ.                                          
     1  0  0.50        -6.4927   1.0000                                         
     2  1  0.50        -3.4015   0.0000                                         
   Description                                                                  
     l       E           TYP  RCUT    TYP  RCUT                                 
     0     -6.4927494     23  1.100                                             
     0      6.8029130     23  1.100                                             
     1     -4.0817478     23  1.100                                             
  local pseudopotential read in
  atomic valenz-charges read in
  non local Contribution for L=           0  read in
    real space projection operators read in
  non local Contribution for L=           0  read in
    real space projection operators read in
  non local Contribution for L=           1  read in
    real space projection operators read in
    PAW grid and wavefunctions read in

   number of l-projection  operators is LMAX  =           3
   number of lm-projection operators is LMMAX =           5

  PAW_PBE H 15Jun2001                   :
 energy of atom  1       EATOM=  -12.4884
 kinetic energy error for atom=    0.0868 (will be added to EATOM!!)


 POSCAR: H4                                      
  positions in direct lattice
  No initial velocities read in
 exchange correlation table for  LEXCH =        8
   RHO(1)=    0.500       N(1)  =     2000
   RHO(2)=  100.500       N(2)  =     4000



--------------------------------------------------------------------------------------------------------


 ion  position               nearest neighbor table
   1  0.000  0.000  0.909-   2 0.75
   2  0.000  0.000  0.091-   1 0.75
   3  0.500  0.500  0.409-   4 0.75
   4  0.500  0.500  0.591-   3 0.75

  LATTYP: Found a simple tetragonal cell.
 ALAT       =     3.3809420000
 C/A-ratio  =     1.2187550097
  
  Lattice vectors:
  
 A1 = (   3.3809420000,   0.0000000000,   0.0000000000)
 A2 = (   0.0000000000,   3.3809420000,   0.0000000000)
 A3 = (   0.0000000000,   0.0000000000,   4.1205400000)


Analysis of symmetry for initial positions (statically):
=====================================================================
 Subroutine PRICEL returns following result:
 
  LATTYP: Found a body centered tetragonal cell.
 ALAT       =     3.3809420000
 C/A-ratio  =     1.2187550097
  
  Lattice vectors:
  
 A1 = (  -1.6904710000,  -1.6904710000,   2.0602700000)
 A2 = (   1.6904710000,   1.6904710000,   2.0602700000)
 A3 = (  -1.6904710000,   1.6904710000,  -2.0602700000)
 
   2 primitive cells build up your supercell.
 

 Routine SETGRP: Setting up the symmetry group for a 
 simple tetragonal supercell.


 Subroutine GETGRP returns: Found 16 space group operations
 (whereof 16 operations were pure point group operations)
 out of a pool of 16 trial point group operations.


The static configuration has the point symmetry D_4h.


Analysis of symmetry for dynamics (positions and initial velocities):
=====================================================================
 Subroutine PRICEL returns following result:
 
  LATTYP: Found a body centered tetragonal cell.
 ALAT       =     3.3809420000
 C/A-ratio  =     1.2187550097
  
  Lattice vectors:
  
 A1 = (  -1.6904710000,  -1.6904710000,   2.0602700000)
 A2 = (   1.6904710000,   1.6904710000,   2.0602700000)
 A3 = (  -1.6904710000,   1.6904710000,  -2.0602700000)
 
   2 primitive cells build up your supercell.
 

 Routine SETGRP: Setting up the symmetry group for a 
 simple tetragonal supercell.


 Subroutine GETGRP returns: Found 16 space group operations
 (whereof 16 operations were pure point group operations)
 out of a pool of 16 trial point group operations.


The dynamic configuration has the point symmetry D_4h.


 Subroutine INISYM returns: Found 16 space group operations
 (whereof 16 operations are pure point group operations),
 and found     2 'primitive' translations



 KPOINTS: nxnxn                                   

Automatic generation of k-mesh.
Space group operators:
 irot       det(A)        alpha          n_x          n_y          n_z        tau_x        tau_y        tau_z
    1     1.000000     0.000001     1.000000     0.000000     0.000000    -0.000000     0.000000     0.000000
    2    -1.000000     0.000001     1.000000     0.000000     0.000000    -0.000000     0.000000     0.000000
    3     1.000000    90.000000     0.000000     0.000000    -1.000000    -0.000000     0.000000     0.000000
    4    -1.000000    90.000000     0.000000     0.000000    -1.000000    -0.000000     0.000000     0.000000
    5     1.000000   179.999999    -0.000000    -0.000000     1.000000    -0.000000     0.000000     0.000000
    6    -1.000000   179.999999    -0.000000    -0.000000     1.000000    -0.000000     0.000000     0.000000
    7     1.000000    90.000000    -0.000000    -0.000000     1.000000    -0.000000     0.000000     0.000000
    8    -1.000000    90.000000    -0.000000    -0.000000     1.000000    -0.000000     0.000000     0.000000
    9     1.000000   180.000000     0.000000     1.000000     0.000000    -0.000000     0.000000     0.000000
   10    -1.000000   180.000000     0.000000     1.000000     0.000000    -0.000000     0.000000     0.000000
   11     1.000000   180.000000     0.707107     0.707107     0.000000    -0.000000     0.000000     0.000000
   12    -1.000000   180.000000     0.707107     0.707107     0.000000    -0.000000     0.000000     0.000000
   13     1.000000   180.000000     1.000000    -0.000000     0.000000    -0.000000     0.000000     0.000000
   14    -1.000000   180.000000     1.000000    -0.000000     0.000000    -0.000000     0.000000     0.000000
   15     1.000000   180.000000     0.707107    -0.707107     0.000000    -0.000000     0.000000     0.000000
   16    -1.000000   180.000000     0.707107    -0.707107     0.000000    -0.000000     0.000000     0.000000
 
 Subroutine IBZKPT returns following result:
 ===========================================
 
 Found    196 irreducible k-points:
 
 Following reciprocal coordinates:
            Coordinates               Weight
  0.000000  0.000000  0.000000      1.000000
  0.083333  0.000000  0.000000      4.000000
  0.166667  0.000000  0.000000      4.000000
  0.250000  0.000000  0.000000      4.000000
  0.333333  0.000000  0.000000      4.000000
  0.416667  0.000000  0.000000      4.000000
  0.500000  0.000000  0.000000      2.000000
  0.083333  0.083333  0.000000      4.000000
  0.166667  0.083333  0.000000      8.000000
  0.250000  0.083333  0.000000      8.000000
  0.333333  0.083333  0.000000      8.000000
  0.416667  0.083333  0.000000      8.000000
  0.500000  0.083333  0.000000      4.000000
  0.166667  0.166667  0.000000      4.000000
  0.250000  0.166667  0.000000      8.000000
  0.333333  0.166667  0.000000      8.000000
  0.416667  0.166667  0.000000      8.000000
  0.500000  0.166667  0.000000      4.000000
  0.250000  0.250000  0.000000      4.000000
  0.333333  0.250000  0.000000      8.000000
  0.416667  0.250000  0.000000      8.000000
  0.500000  0.250000  0.000000      4.000000
  0.333333  0.333333  0.000000      4.000000
  0.416667  0.333333  0.000000      8.000000
  0.500000  0.333333  0.000000      4.000000
  0.416667  0.416667  0.000000      4.000000
  0.500000  0.416667  0.000000      4.000000
  0.500000  0.500000  0.000000      1.000000
  0.000000  0.000000  0.083333      2.000000
  0.083333  0.000000  0.083333      8.000000
  0.166667  0.000000  0.083333      8.000000
  0.250000  0.000000  0.083333      8.000000
  0.333333  0.000000  0.083333      8.000000
  0.416667  0.000000  0.083333      8.000000
  0.500000  0.000000  0.083333      4.000000
  0.083333  0.083333  0.083333      8.000000
  0.166667  0.083333  0.083333     16.000000
  0.250000  0.083333  0.083333     16.000000
  0.333333  0.083333  0.083333     16.000000
  0.416667  0.083333  0.083333     16.000000
  0.500000  0.083333  0.083333      8.000000
  0.166667  0.166667  0.083333      8.000000
  0.250000  0.166667  0.083333     16.000000
  0.333333  0.166667  0.083333     16.000000
  0.416667  0.166667  0.083333     16.000000
  0.500000  0.166667  0.083333      8.000000
  0.250000  0.250000  0.083333      8.000000
  0.333333  0.250000  0.083333     16.000000
  0.416667  0.250000  0.083333     16.000000
  0.500000  0.250000  0.083333      8.000000
  0.333333  0.333333  0.083333      8.000000
  0.416667  0.333333  0.083333     16.000000
  0.500000  0.333333  0.083333      8.000000
  0.416667  0.416667  0.083333      8.000000
  0.500000  0.416667  0.083333      8.000000
  0.500000  0.500000  0.083333      2.000000
  0.000000  0.000000  0.166667      2.000000
  0.083333  0.000000  0.166667      8.000000
  0.166667  0.000000  0.166667      8.000000
  0.250000  0.000000  0.166667      8.000000
  0.333333  0.000000  0.166667      8.000000
  0.416667  0.000000  0.166667      8.000000
  0.500000  0.000000  0.166667      4.000000
  0.083333  0.083333  0.166667      8.000000
  0.166667  0.083333  0.166667     16.000000
  0.250000  0.083333  0.166667     16.000000
  0.333333  0.083333  0.166667     16.000000
  0.416667  0.083333  0.166667     16.000000
  0.500000  0.083333  0.166667      8.000000
  0.166667  0.166667  0.166667      8.000000
  0.250000  0.166667  0.166667     16.000000
  0.333333  0.166667  0.166667     16.000000
  0.416667  0.166667  0.166667     16.000000
  0.500000  0.166667  0.166667      8.000000
  0.250000  0.250000  0.166667      8.000000
  0.333333  0.250000  0.166667     16.000000
  0.416667  0.250000  0.166667     16.000000
  0.500000  0.250000  0.166667      8.000000
  0.333333  0.333333  0.166667      8.000000
  0.416667  0.333333  0.166667     16.000000
  0.500000  0.333333  0.166667      8.000000
  0.416667  0.416667  0.166667      8.000000
  0.500000  0.416667  0.166667      8.000000
  0.500000  0.500000  0.166667      2.000000
  0.000000  0.000000  0.250000      2.000000
  0.083333  0.000000  0.250000      8.000000
  0.166667  0.000000  0.250000      8.000000
  0.250000  0.000000  0.250000      8.000000
  0.333333  0.000000  0.250000      8.000000
  0.416667  0.000000  0.250000      8.000000
  0.500000  0.000000  0.250000      4.000000
  0.083333  0.083333  0.250000      8.000000
  0.166667  0.083333  0.250000     16.000000
  0.250000  0.083333  0.250000     16.000000
  0.333333  0.083333  0.250000     16.000000
  0.416667  0.083333  0.250000     16.000000
  0.500000  0.083333  0.250000      8.000000
  0.166667  0.166667  0.250000      8.000000
  0.250000  0.166667  0.250000     16.000000
  0.333333  0.166667  0.250000     16.000000
  0.416667  0.166667  0.250000     16.000000
  0.500000  0.166667  0.250000      8.000000
  0.250000  0.250000  0.250000      8.000000
  0.333333  0.250000  0.250000     16.000000
  0.416667  0.250000  0.250000     16.000000
  0.500000  0.250000  0.250000      8.000000
  0.333333  0.333333  0.250000      8.000000
  0.416667  0.333333  0.250000     16.000000
  0.500000  0.333333  0.250000      8.000000
  0.416667  0.416667  0.250000      8.000000
  0.500000  0.416667  0.250000      8.000000
  0.500000  0.500000  0.250000      2.000000
  0.000000  0.000000  0.333333      2.000000
  0.083333  0.000000  0.333333      8.000000
  0.166667  0.000000  0.333333      8.000000
  0.250000  0.000000  0.333333      8.000000
  0.333333  0.000000  0.333333      8.000000
  0.416667  0.000000  0.333333      8.000000
  0.500000  0.000000  0.333333      4.000000
  0.083333  0.083333  0.333333      8.000000
  0.166667  0.083333  0.333333     16.000000
  0.250000  0.083333  0.333333     16.000000
  0.333333  0.083333  0.333333     16.000000
  0.416667  0.083333  0.333333     16.000000
  0.500000  0.083333  0.333333      8.000000
  0.166667  0.166667  0.333333      8.000000
  0.250000  0.166667  0.333333     16.000000
  0.333333  0.166667  0.333333     16.000000
  0.416667  0.166667  0.333333     16.000000
  0.500000  0.166667  0.333333      8.000000
  0.250000  0.250000  0.333333      8.000000
  0.333333  0.250000  0.333333     16.000000
  0.416667  0.250000  0.333333     16.000000
  0.500000  0.250000  0.333333      8.000000
  0.333333  0.333333  0.333333      8.000000
  0.416667  0.333333  0.333333     16.000000
  0.500000  0.333333  0.333333      8.000000
  0.416667  0.416667  0.333333      8.000000
  0.500000  0.416667  0.333333      8.000000
  0.500000  0.500000  0.333333      2.000000
  0.000000  0.000000  0.416667      2.000000
  0.083333  0.000000  0.416667      8.000000
  0.166667  0.000000  0.416667      8.000000
  0.250000  0.000000  0.416667      8.000000
  0.333333  0.000000  0.416667      8.000000
  0.416667  0.000000  0.416667      8.000000
  0.500000  0.000000  0.416667      4.000000
  0.083333  0.083333  0.416667      8.000000
  0.166667  0.083333  0.416667     16.000000
  0.250000  0.083333  0.416667     16.000000
  0.333333  0.083333  0.416667     16.000000
  0.416667  0.083333  0.416667     16.000000
  0.500000  0.083333  0.416667      8.000000
  0.166667  0.166667  0.416667      8.000000
  0.250000  0.166667  0.416667     16.000000
  0.333333  0.166667  0.416667     16.000000
  0.416667  0.166667  0.416667     16.000000
  0.500000  0.166667  0.416667      8.000000
  0.250000  0.250000  0.416667      8.000000
  0.333333  0.250000  0.416667     16.000000
  0.416667  0.250000  0.416667     16.000000
  0.500000  0.250000  0.416667      8.000000
  0.333333  0.333333  0.416667      8.000000
  0.416667  0.333333  0.416667     16.000000
  0.500000  0.333333  0.416667      8.000000
  0.416667  0.416667  0.416667      8.000000
  0.500000  0.416667  0.416667      8.000000
  0.500000  0.500000  0.416667      2.000000
  0.000000  0.000000  0.500000      1.000000
  0.083333  0.000000  0.500000      4.000000
  0.166667  0.000000  0.500000      4.000000
  0.250000  0.000000  0.500000      4.000000
  0.333333  0.000000  0.500000      4.000000
  0.416667  0.000000  0.500000      4.000000
  0.500000  0.000000  0.500000      2.000000
  0.083333  0.083333  0.500000      4.000000
  0.166667  0.083333  0.500000      8.000000
  0.250000  0.083333  0.500000      8.000000
  0.333333  0.083333  0.500000      8.000000
  0.416667  0.083333  0.500000      8.000000
  0.500000  0.083333  0.500000      4.000000
  0.166667  0.166667  0.500000      4.000000
  0.250000  0.166667  0.500000      8.000000
  0.333333  0.166667  0.500000      8.000000
  0.416667  0.166667  0.500000      8.000000
  0.500000  0.166667  0.500000      4.000000
  0.250000  0.250000  0.500000      4.000000
  0.333333  0.250000  0.500000      8.000000
  0.416667  0.250000  0.500000      8.000000
  0.500000  0.250000  0.500000      4.000000
  0.333333  0.333333  0.500000      4.000000
  0.416667  0.333333  0.500000      8.000000
  0.500000  0.333333  0.500000      4.000000
  0.416667  0.416667  0.500000      4.000000
  0.500000  0.416667  0.500000      4.000000
  0.500000  0.500000  0.500000      1.000000
 
 Following cartesian coordinates:
            Coordinates               Weight
  0.000000  0.000000  0.000000      1.000000
  0.024648  0.000000  0.000000      4.000000
  0.049296  0.000000  0.000000      4.000000
  0.073944  0.000000  0.000000      4.000000
  0.098592  0.000000  0.000000      4.000000
  0.123240  0.000000  0.000000      4.000000
  0.147888  0.000000  0.000000      2.000000
  0.024648  0.024648  0.000000      4.000000
  0.049296  0.024648  0.000000      8.000000
  0.073944  0.024648  0.000000      8.000000
  0.098592  0.024648  0.000000      8.000000
  0.123240  0.024648  0.000000      8.000000
  0.147888  0.024648  0.000000      4.000000
  0.049296  0.049296  0.000000      4.000000
  0.073944  0.049296  0.000000      8.000000
  0.098592  0.049296  0.000000      8.000000
  0.123240  0.049296  0.000000      8.000000
  0.147888  0.049296  0.000000      4.000000
  0.073944  0.073944  0.000000      4.000000
  0.098592  0.073944  0.000000      8.000000
  0.123240  0.073944  0.000000      8.000000
  0.147888  0.073944  0.000000      4.000000
  0.098592  0.098592  0.000000      4.000000
  0.123240  0.098592  0.000000      8.000000
  0.147888  0.098592  0.000000      4.000000
  0.123240  0.123240  0.000000      4.000000
  0.147888  0.123240  0.000000      4.000000
  0.147888  0.147888  0.000000      1.000000
  0.000000  0.000000  0.020224      2.000000
  0.024648  0.000000  0.020224      8.000000
  0.049296  0.000000  0.020224      8.000000
  0.073944  0.000000  0.020224      8.000000
  0.098592  0.000000  0.020224      8.000000
  0.123240  0.000000  0.020224      8.000000
  0.147888  0.000000  0.020224      4.000000
  0.024648  0.024648  0.020224      8.000000
  0.049296  0.024648  0.020224     16.000000
  0.073944  0.024648  0.020224     16.000000
  0.098592  0.024648  0.020224     16.000000
  0.123240  0.024648  0.020224     16.000000
  0.147888  0.024648  0.020224      8.000000
  0.049296  0.049296  0.020224      8.000000
  0.073944  0.049296  0.020224     16.000000
  0.098592  0.049296  0.020224     16.000000
  0.123240  0.049296  0.020224     16.000000
  0.147888  0.049296  0.020224      8.000000
  0.073944  0.073944  0.020224      8.000000
  0.098592  0.073944  0.020224     16.000000
  0.123240  0.073944  0.020224     16.000000
  0.147888  0.073944  0.020224      8.000000
  0.098592  0.098592  0.020224      8.000000
  0.123240  0.098592  0.020224     16.000000
  0.147888  0.098592  0.020224      8.000000
  0.123240  0.123240  0.020224      8.000000
  0.147888  0.123240  0.020224      8.000000
  0.147888  0.147888  0.020224      2.000000
  0.000000  0.000000  0.040448      2.000000
  0.024648  0.000000  0.040448      8.000000
  0.049296  0.000000  0.040448      8.000000
  0.073944  0.000000  0.040448      8.000000
  0.098592  0.000000  0.040448      8.000000
  0.123240  0.000000  0.040448      8.000000
  0.147888  0.000000  0.040448      4.000000
  0.024648  0.024648  0.040448      8.000000
  0.049296  0.024648  0.040448     16.000000
  0.073944  0.024648  0.040448     16.000000
  0.098592  0.024648  0.040448     16.000000
  0.123240  0.024648  0.040448     16.000000
  0.147888  0.024648  0.040448      8.000000
  0.049296  0.049296  0.040448      8.000000
  0.073944  0.049296  0.040448     16.000000
  0.098592  0.049296  0.040448     16.000000
  0.123240  0.049296  0.040448     16.000000
  0.147888  0.049296  0.040448      8.000000
  0.073944  0.073944  0.040448      8.000000
  0.098592  0.073944  0.040448     16.000000
  0.123240  0.073944  0.040448     16.000000
  0.147888  0.073944  0.040448      8.000000
  0.098592  0.098592  0.040448      8.000000
  0.123240  0.098592  0.040448     16.000000
  0.147888  0.098592  0.040448      8.000000
  0.123240  0.123240  0.040448      8.000000
  0.147888  0.123240  0.040448      8.000000
  0.147888  0.147888  0.040448      2.000000
  0.000000  0.000000  0.060672      2.000000
  0.024648  0.000000  0.060672      8.000000
  0.049296  0.000000  0.060672      8.000000
  0.073944  0.000000  0.060672      8.000000
  0.098592  0.000000  0.060672      8.000000
  0.123240  0.000000  0.060672      8.000000
  0.147888  0.000000  0.060672      4.000000
  0.024648  0.024648  0.060672      8.000000
  0.049296  0.024648  0.060672     16.000000
  0.073944  0.024648  0.060672     16.000000
  0.098592  0.024648  0.060672     16.000000
  0.123240  0.024648  0.060672     16.000000
  0.147888  0.024648  0.060672      8.000000
  0.049296  0.049296  0.060672      8.000000
  0.073944  0.049296  0.060672     16.000000
  0.098592  0.049296  0.060672     16.000000
  0.123240  0.049296  0.060672     16.000000
  0.147888  0.049296  0.060672      8.000000
  0.073944  0.073944  0.060672      8.000000
  0.098592  0.073944  0.060672     16.000000
  0.123240  0.073944  0.060672     16.000000
  0.147888  0.073944  0.060672      8.000000
  0.098592  0.098592  0.060672      8.000000
  0.123240  0.098592  0.060672     16.000000
  0.147888  0.098592  0.060672      8.000000
  0.123240  0.123240  0.060672      8.000000
  0.147888  0.123240  0.060672      8.000000
  0.147888  0.147888  0.060672      2.000000
  0.000000  0.000000  0.080896      2.000000
  0.024648  0.000000  0.080896      8.000000
  0.049296  0.000000  0.080896      8.000000
  0.073944  0.000000  0.080896      8.000000
  0.098592  0.000000  0.080896      8.000000
  0.123240  0.000000  0.080896      8.000000
  0.147888  0.000000  0.080896      4.000000
  0.024648  0.024648  0.080896      8.000000
  0.049296  0.024648  0.080896     16.000000
  0.073944  0.024648  0.080896     16.000000
  0.098592  0.024648  0.080896     16.000000
  0.123240  0.024648  0.080896     16.000000
  0.147888  0.024648  0.080896      8.000000
  0.049296  0.049296  0.080896      8.000000
  0.073944  0.049296  0.080896     16.000000
  0.098592  0.049296  0.080896     16.000000
  0.123240  0.049296  0.080896     16.000000
  0.147888  0.049296  0.080896      8.000000
  0.073944  0.073944  0.080896      8.000000
  0.098592  0.073944  0.080896     16.000000
  0.123240  0.073944  0.080896     16.000000
  0.147888  0.073944  0.080896      8.000000
  0.098592  0.098592  0.080896      8.000000
  0.123240  0.098592  0.080896     16.000000
  0.147888  0.098592  0.080896      8.000000
  0.123240  0.123240  0.080896      8.000000
  0.147888  0.123240  0.080896      8.000000
  0.147888  0.147888  0.080896      2.000000
  0.000000  0.000000  0.101119      2.000000
  0.024648  0.000000  0.101119      8.000000
  0.049296  0.000000  0.101119      8.000000
  0.073944  0.000000  0.101119      8.000000
  0.098592  0.000000  0.101119      8.000000
  0.123240  0.000000  0.101119      8.000000
  0.147888  0.000000  0.101119      4.000000
  0.024648  0.024648  0.101119      8.000000
  0.049296  0.024648  0.101119     16.000000
  0.073944  0.024648  0.101119     16.000000
  0.098592  0.024648  0.101119     16.000000
  0.123240  0.024648  0.101119     16.000000
  0.147888  0.024648  0.101119      8.000000
  0.049296  0.049296  0.101119      8.000000
  0.073944  0.049296  0.101119     16.000000
  0.098592  0.049296  0.101119     16.000000
  0.123240  0.049296  0.101119     16.000000
  0.147888  0.049296  0.101119      8.000000
  0.073944  0.073944  0.101119      8.000000
  0.098592  0.073944  0.101119     16.000000
  0.123240  0.073944  0.101119     16.000000
  0.147888  0.073944  0.101119      8.000000
  0.098592  0.098592  0.101119      8.000000
  0.123240  0.098592  0.101119     16.000000
  0.147888  0.098592  0.101119      8.000000
  0.123240  0.123240  0.101119      8.000000
  0.147888  0.123240  0.101119      8.000000
  0.147888  0.147888  0.101119      2.000000
  0.000000  0.000000  0.121343      1.000000
  0.024648  0.000000  0.121343      4.000000
  0.049296  0.000000  0.121343      4.000000
  0.073944  0.000000  0.121343      4.000000
  0.098592  0.000000  0.121343      4.000000
  0.123240  0.000000  0.121343      4.000000
  0.147888  0.000000  0.121343      2.000000
  0.024648  0.024648  0.121343      4.000000
  0.049296  0.024648  0.121343      8.000000
  0.073944  0.024648  0.121343      8.000000
  0.098592  0.024648  0.121343      8.000000
  0.123240  0.024648  0.121343      8.000000
  0.147888  0.024648  0.121343      4.000000
  0.049296  0.049296  0.121343      4.000000
  0.073944  0.049296  0.121343      8.000000
  0.098592  0.049296  0.121343      8.000000
  0.123240  0.049296  0.121343      8.000000
  0.147888  0.049296  0.121343      4.000000
  0.073944  0.073944  0.121343      4.000000
  0.098592  0.073944  0.121343      8.000000
  0.123240  0.073944  0.121343      8.000000
  0.147888  0.073944  0.121343      4.000000
  0.098592  0.098592  0.121343      4.000000
  0.123240  0.098592  0.121343      8.000000
  0.147888  0.098592  0.121343      4.000000
  0.123240  0.123240  0.121343      4.000000
  0.147888  0.123240  0.121343      4.000000
  0.147888  0.147888  0.121343      1.000000
 
 
 Subroutine IBZKPT_HF returns following result:
 ==============================================
 
 Found   1728 k-points in 1st BZ
 the following   1728 k-points will be used (e.g. in the exchange kernel)
 Following reciprocal coordinates:   # in IRBZ
  0.000000  0.000000  0.000000    0.00057870   1 t-inv F
  0.083333  0.000000  0.000000    0.00057870   2 t-inv F
  0.166667  0.000000  0.000000    0.00057870   3 t-inv F
  0.250000  0.000000  0.000000    0.00057870   4 t-inv F
  0.333333  0.000000  0.000000    0.00057870   5 t-inv F
  0.416667  0.000000  0.000000    0.00057870   6 t-inv F
  0.500000  0.000000  0.000000    0.00057870   7 t-inv F
  0.083333  0.083333  0.000000    0.00057870   8 t-inv F
  0.166667  0.083333  0.000000    0.00057870   9 t-inv F
  0.250000  0.083333  0.000000    0.00057870  10 t-inv F
  0.333333  0.083333  0.000000    0.00057870  11 t-inv F
  0.416667  0.083333  0.000000    0.00057870  12 t-inv F
  0.500000  0.083333  0.000000    0.00057870  13 t-inv F
  0.166667  0.166667  0.000000    0.00057870  14 t-inv F
  0.250000  0.166667  0.000000    0.00057870  15 t-inv F
  0.333333  0.166667  0.000000    0.00057870  16 t-inv F
  0.416667  0.166667  0.000000    0.00057870  17 t-inv F
  0.500000  0.166667  0.000000    0.00057870  18 t-inv F
  0.250000  0.250000  0.000000    0.00057870  19 t-inv F
  0.333333  0.250000  0.000000    0.00057870  20 t-inv F
  0.416667  0.250000  0.000000    0.00057870  21 t-inv F
  0.500000  0.250000  0.000000    0.00057870  22 t-inv F
  0.333333  0.333333  0.000000    0.00057870  23 t-inv F
  0.416667  0.333333  0.000000    0.00057870  24 t-inv F
  0.500000  0.333333  0.000000    0.00057870  25 t-inv F
  0.416667  0.416667  0.000000    0.00057870  26 t-inv F
  0.500000  0.416667  0.000000    0.00057870  27 t-inv F
  0.500000  0.500000  0.000000    0.00057870  28 t-inv F
  0.000000  0.000000  0.083333    0.00057870  29 t-inv F
  0.083333  0.000000  0.083333    0.00057870  30 t-inv F
  0.166667  0.000000  0.083333    0.00057870  31 t-inv F
  0.250000  0.000000  0.083333    0.00057870  32 t-inv F
  0.333333  0.000000  0.083333    0.00057870  33 t-inv F
  0.416667  0.000000  0.083333    0.00057870  34 t-inv F
  0.500000  0.000000  0.083333    0.00057870  35 t-inv F
  0.083333  0.083333  0.083333    0.00057870  36 t-inv F
  0.166667  0.083333  0.083333    0.00057870  37 t-inv F
  0.250000  0.083333  0.083333    0.00057870  38 t-inv F
  0.333333  0.083333  0.083333    0.00057870  39 t-inv F
  0.416667  0.083333  0.083333    0.00057870  40 t-inv F
  0.500000  0.083333  0.083333    0.00057870  41 t-inv F
  0.166667  0.166667  0.083333    0.00057870  42 t-inv F
  0.250000  0.166667  0.083333    0.00057870  43 t-inv F
  0.333333  0.166667  0.083333    0.00057870  44 t-inv F
  0.416667  0.166667  0.083333    0.00057870  45 t-inv F
  0.500000  0.166667  0.083333    0.00057870  46 t-inv F
  0.250000  0.250000  0.083333    0.00057870  47 t-inv F
  0.333333  0.250000  0.083333    0.00057870  48 t-inv F
  0.416667  0.250000  0.083333    0.00057870  49 t-inv F
  0.500000  0.250000  0.083333    0.00057870  50 t-inv F
  0.333333  0.333333  0.083333    0.00057870  51 t-inv F
  0.416667  0.333333  0.083333    0.00057870  52 t-inv F
  0.500000  0.333333  0.083333    0.00057870  53 t-inv F
  0.416667  0.416667  0.083333    0.00057870  54 t-inv F
  0.500000  0.416667  0.083333    0.00057870  55 t-inv F
  0.500000  0.500000  0.083333    0.00057870  56 t-inv F
  0.000000  0.000000  0.166667    0.00057870  57 t-inv F
  0.083333  0.000000  0.166667    0.00057870  58 t-inv F
  0.166667  0.000000  0.166667    0.00057870  59 t-inv F
  0.250000  0.000000  0.166667    0.00057870  60 t-inv F
  0.333333  0.000000  0.166667    0.00057870  61 t-inv F
  0.416667  0.000000  0.166667    0.00057870  62 t-inv F
  0.500000  0.000000  0.166667    0.00057870  63 t-inv F
  0.083333  0.083333  0.166667    0.00057870  64 t-inv F
  0.166667  0.083333  0.166667    0.00057870  65 t-inv F
  0.250000  0.083333  0.166667    0.00057870  66 t-inv F
  0.333333  0.083333  0.166667    0.00057870  67 t-inv F
  0.416667  0.083333  0.166667    0.00057870  68 t-inv F
  0.500000  0.083333  0.166667    0.00057870  69 t-inv F
  0.166667  0.166667  0.166667    0.00057870  70 t-inv F
  0.250000  0.166667  0.166667    0.00057870  71 t-inv F
  0.333333  0.166667  0.166667    0.00057870  72 t-inv F
  0.416667  0.166667  0.166667    0.00057870  73 t-inv F
  0.500000  0.166667  0.166667    0.00057870  74 t-inv F
  0.250000  0.250000  0.166667    0.00057870  75 t-inv F
  0.333333  0.250000  0.166667    0.00057870  76 t-inv F
  0.416667  0.250000  0.166667    0.00057870  77 t-inv F
  0.500000  0.250000  0.166667    0.00057870  78 t-inv F
  0.333333  0.333333  0.166667    0.00057870  79 t-inv F
  0.416667  0.333333  0.166667    0.00057870  80 t-inv F
  0.500000  0.333333  0.166667    0.00057870  81 t-inv F
  0.416667  0.416667  0.166667    0.00057870  82 t-inv F
  0.500000  0.416667  0.166667    0.00057870  83 t-inv F
  0.500000  0.500000  0.166667    0.00057870  84 t-inv F
  0.000000  0.000000  0.250000    0.00057870  85 t-inv F
  0.083333  0.000000  0.250000    0.00057870  86 t-inv F
  0.166667  0.000000  0.250000    0.00057870  87 t-inv F
  0.250000  0.000000  0.250000    0.00057870  88 t-inv F
  0.333333  0.000000  0.250000    0.00057870  89 t-inv F
  0.416667  0.000000  0.250000    0.00057870  90 t-inv F
  0.500000  0.000000  0.250000    0.00057870  91 t-inv F
  0.083333  0.083333  0.250000    0.00057870  92 t-inv F
  0.166667  0.083333  0.250000    0.00057870  93 t-inv F
  0.250000  0.083333  0.250000    0.00057870  94 t-inv F
  0.333333  0.083333  0.250000    0.00057870  95 t-inv F
  0.416667  0.083333  0.250000    0.00057870  96 t-inv F
  0.500000  0.083333  0.250000    0.00057870  97 t-inv F
  0.166667  0.166667  0.250000    0.00057870  98 t-inv F
  0.250000  0.166667  0.250000    0.00057870  99 t-inv F
  0.333333  0.166667  0.250000    0.00057870 100 t-inv F
  0.416667  0.166667  0.250000    0.00057870 101 t-inv F
  0.500000  0.166667  0.250000    0.00057870 102 t-inv F
  0.250000  0.250000  0.250000    0.00057870 103 t-inv F
  0.333333  0.250000  0.250000    0.00057870 104 t-inv F
  0.416667  0.250000  0.250000    0.00057870 105 t-inv F
  0.500000  0.250000  0.250000    0.00057870 106 t-inv F
  0.333333  0.333333  0.250000    0.00057870 107 t-inv F
  0.416667  0.333333  0.250000    0.00057870 108 t-inv F
  0.500000  0.333333  0.250000    0.00057870 109 t-inv F
  0.416667  0.416667  0.250000    0.00057870 110 t-inv F
  0.500000  0.416667  0.250000    0.00057870 111 t-inv F
  0.500000  0.500000  0.250000    0.00057870 112 t-inv F
  0.000000  0.000000  0.333333    0.00057870 113 t-inv F
  0.083333  0.000000  0.333333    0.00057870 114 t-inv F
  0.166667  0.000000  0.333333    0.00057870 115 t-inv F
  0.250000  0.000000  0.333333    0.00057870 116 t-inv F
  0.333333  0.000000  0.333333    0.00057870 117 t-inv F
  0.416667  0.000000  0.333333    0.00057870 118 t-inv F
  0.500000  0.000000  0.333333    0.00057870 119 t-inv F
  0.083333  0.083333  0.333333    0.00057870 120 t-inv F
  0.166667  0.083333  0.333333    0.00057870 121 t-inv F
  0.250000  0.083333  0.333333    0.00057870 122 t-inv F
  0.333333  0.083333  0.333333    0.00057870 123 t-inv F
  0.416667  0.083333  0.333333    0.00057870 124 t-inv F
  0.500000  0.083333  0.333333    0.00057870 125 t-inv F
  0.166667  0.166667  0.333333    0.00057870 126 t-inv F
  0.250000  0.166667  0.333333    0.00057870 127 t-inv F
  0.333333  0.166667  0.333333    0.00057870 128 t-inv F
  0.416667  0.166667  0.333333    0.00057870 129 t-inv F
  0.500000  0.166667  0.333333    0.00057870 130 t-inv F
  0.250000  0.250000  0.333333    0.00057870 131 t-inv F
  0.333333  0.250000  0.333333    0.00057870 132 t-inv F
  0.416667  0.250000  0.333333    0.00057870 133 t-inv F
  0.500000  0.250000  0.333333    0.00057870 134 t-inv F
  0.333333  0.333333  0.333333    0.00057870 135 t-inv F
  0.416667  0.333333  0.333333    0.00057870 136 t-inv F
  0.500000  0.333333  0.333333    0.00057870 137 t-inv F
  0.416667  0.416667  0.333333    0.00057870 138 t-inv F
  0.500000  0.416667  0.333333    0.00057870 139 t-inv F
  0.500000  0.500000  0.333333    0.00057870 140 t-inv F
  0.000000  0.000000  0.416667    0.00057870 141 t-inv F
  0.083333  0.000000  0.416667    0.00057870 142 t-inv F
  0.166667  0.000000  0.416667    0.00057870 143 t-inv F
  0.250000  0.000000  0.416667    0.00057870 144 t-inv F
  0.333333  0.000000  0.416667    0.00057870 145 t-inv F
  0.416667  0.000000  0.416667    0.00057870 146 t-inv F
  0.500000  0.000000  0.416667    0.00057870 147 t-inv F
  0.083333  0.083333  0.416667    0.00057870 148 t-inv F
  0.166667  0.083333  0.416667    0.00057870 149 t-inv F
  0.250000  0.083333  0.416667    0.00057870 150 t-inv F
  0.333333  0.083333  0.416667    0.00057870 151 t-inv F
  0.416667  0.083333  0.416667    0.00057870 152 t-inv F
  0.500000  0.083333  0.416667    0.00057870 153 t-inv F
  0.166667  0.166667  0.416667    0.00057870 154 t-inv F
  0.250000  0.166667  0.416667    0.00057870 155 t-inv F
  0.333333  0.166667  0.416667    0.00057870 156 t-inv F
  0.416667  0.166667  0.416667    0.00057870 157 t-inv F
  0.500000  0.166667  0.416667    0.00057870 158 t-inv F
  0.250000  0.250000  0.416667    0.00057870 159 t-inv F
  0.333333  0.250000  0.416667    0.00057870 160 t-inv F
  0.416667  0.250000  0.416667    0.00057870 161 t-inv F
  0.500000  0.250000  0.416667    0.00057870 162 t-inv F
  0.333333  0.333333  0.416667    0.00057870 163 t-inv F
  0.416667  0.333333  0.416667    0.00057870 164 t-inv F
  0.500000  0.333333  0.416667    0.00057870 165 t-inv F
  0.416667  0.416667  0.416667    0.00057870 166 t-inv F
  0.500000  0.416667  0.416667    0.00057870 167 t-inv F
  0.500000  0.500000  0.416667    0.00057870 168 t-inv F
  0.000000  0.000000  0.500000    0.00057870 169 t-inv F
  0.083333  0.000000  0.500000    0.00057870 170 t-inv F
  0.166667  0.000000  0.500000    0.00057870 171 t-inv F
  0.250000  0.000000  0.500000    0.00057870 172 t-inv F
  0.333333  0.000000  0.500000    0.00057870 173 t-inv F
  0.416667  0.000000  0.500000    0.00057870 174 t-inv F
  0.500000  0.000000  0.500000    0.00057870 175 t-inv F
  0.083333  0.083333  0.500000    0.00057870 176 t-inv F
  0.166667  0.083333  0.500000    0.00057870 177 t-inv F
  0.250000  0.083333  0.500000    0.00057870 178 t-inv F
  0.333333  0.083333  0.500000    0.00057870 179 t-inv F
  0.416667  0.083333  0.500000    0.00057870 180 t-inv F
  0.500000  0.083333  0.500000    0.00057870 181 t-inv F
  0.166667  0.166667  0.500000    0.00057870 182 t-inv F
  0.250000  0.166667  0.500000    0.00057870 183 t-inv F
  0.333333  0.166667  0.500000    0.00057870 184 t-inv F
  0.416667  0.166667  0.500000    0.00057870 185 t-inv F
  0.500000  0.166667  0.500000    0.00057870 186 t-inv F
  0.250000  0.250000  0.500000    0.00057870 187 t-inv F
  0.333333  0.250000  0.500000    0.00057870 188 t-inv F
  0.416667  0.250000  0.500000    0.00057870 189 t-inv F
  0.500000  0.250000  0.500000    0.00057870 190 t-inv F
  0.333333  0.333333  0.500000    0.00057870 191 t-inv F
  0.416667  0.333333  0.500000    0.00057870 192 t-inv F
  0.500000  0.333333  0.500000    0.00057870 193 t-inv F
  0.416667  0.416667  0.500000    0.00057870 194 t-inv F
  0.500000  0.416667  0.500000    0.00057870 195 t-inv F
  0.500000  0.500000  0.500000    0.00057870 196 t-inv F
 -0.083333 -0.000000 -0.000000    0.00057870   2 t-inv F
 -0.000000  0.083333  0.000000    0.00057870   2 t-inv F
  0.000000 -0.083333 -0.000000    0.00057870   2 t-inv F
 -0.166667 -0.000000 -0.000000    0.00057870   3 t-inv F
 -0.000000  0.166667  0.000000    0.00057870   3 t-inv F
  0.000000 -0.166667 -0.000000    0.00057870   3 t-inv F
 -0.250000 -0.000000 -0.000000    0.00057870   4 t-inv F
 -0.000000  0.250000  0.000000    0.00057870   4 t-inv F
  0.000000 -0.250000 -0.000000    0.00057870   4 t-inv F
 -0.333333 -0.000000 -0.000000    0.00057870   5 t-inv F
 -0.000000  0.333333  0.000000    0.00057870   5 t-inv F
  0.000000 -0.333333 -0.000000    0.00057870   5 t-inv F
 -0.416667 -0.000000 -0.000000    0.00057870   6 t-inv F
 -0.000000  0.416667  0.000000    0.00057870   6 t-inv F
  0.000000 -0.416667 -0.000000    0.00057870   6 t-inv F
 -0.000000  0.500000  0.000000    0.00057870   7 t-inv F
 -0.083333 -0.083333 -0.000000    0.00057870   8 t-inv F
 -0.083333  0.083333  0.000000    0.00057870   8 t-inv F
  0.083333 -0.083333 -0.000000    0.00057870   8 t-inv F
 -0.166667 -0.083333 -0.000000    0.00057870   9 t-inv F
 -0.083333  0.166667  0.000000    0.00057870   9 t-inv F
  0.083333 -0.166667 -0.000000    0.00057870   9 t-inv F
 -0.166667  0.083333 -0.000000    0.00057870   9 t-inv F
  0.166667 -0.083333  0.000000    0.00057870   9 t-inv F
  0.083333  0.166667 -0.000000    0.00057870   9 t-inv F
 -0.083333 -0.166667  0.000000    0.00057870   9 t-inv F
 -0.250000 -0.083333 -0.000000    0.00057870  10 t-inv F
 -0.083333  0.250000  0.000000    0.00057870  10 t-inv F
  0.083333 -0.250000 -0.000000    0.00057870  10 t-inv F
 -0.250000  0.083333 -0.000000    0.00057870  10 t-inv F
  0.250000 -0.083333  0.000000    0.00057870  10 t-inv F
  0.083333  0.250000 -0.000000    0.00057870  10 t-inv F
 -0.083333 -0.250000  0.000000    0.00057870  10 t-inv F
 -0.333333 -0.083333 -0.000000    0.00057870  11 t-inv F
 -0.083333  0.333333  0.000000    0.00057870  11 t-inv F
  0.083333 -0.333333 -0.000000    0.00057870  11 t-inv F
 -0.333333  0.083333 -0.000000    0.00057870  11 t-inv F
  0.333333 -0.083333  0.000000    0.00057870  11 t-inv F
  0.083333  0.333333 -0.000000    0.00057870  11 t-inv F
 -0.083333 -0.333333  0.000000    0.00057870  11 t-inv F
 -0.416667 -0.083333 -0.000000    0.00057870  12 t-inv F
 -0.083333  0.416667  0.000000    0.00057870  12 t-inv F
  0.083333 -0.416667 -0.000000    0.00057870  12 t-inv F
 -0.416667  0.083333 -0.000000    0.00057870  12 t-inv F
  0.416667 -0.083333  0.000000    0.00057870  12 t-inv F
  0.083333  0.416667 -0.000000    0.00057870  12 t-inv F
 -0.083333 -0.416667  0.000000    0.00057870  12 t-inv F
 -0.500000 -0.083333 -0.000000    0.00057870  13 t-inv F
 -0.083333  0.500000  0.000000    0.00057870  13 t-inv F
  0.083333 -0.500000 -0.000000    0.00057870  13 t-inv F
 -0.166667 -0.166667 -0.000000    0.00057870  14 t-inv F
 -0.166667  0.166667  0.000000    0.00057870  14 t-inv F
  0.166667 -0.166667 -0.000000    0.00057870  14 t-inv F
 -0.250000 -0.166667 -0.000000    0.00057870  15 t-inv F
 -0.166667  0.250000  0.000000    0.00057870  15 t-inv F
  0.166667 -0.250000 -0.000000    0.00057870  15 t-inv F
 -0.250000  0.166667 -0.000000    0.00057870  15 t-inv F
  0.250000 -0.166667  0.000000    0.00057870  15 t-inv F
  0.166667  0.250000 -0.000000    0.00057870  15 t-inv F
 -0.166667 -0.250000  0.000000    0.00057870  15 t-inv F
 -0.333333 -0.166667 -0.000000    0.00057870  16 t-inv F
 -0.166667  0.333333  0.000000    0.00057870  16 t-inv F
  0.166667 -0.333333 -0.000000    0.00057870  16 t-inv F
 -0.333333  0.166667 -0.000000    0.00057870  16 t-inv F
  0.333333 -0.166667  0.000000    0.00057870  16 t-inv F
  0.166667  0.333333 -0.000000    0.00057870  16 t-inv F
 -0.166667 -0.333333  0.000000    0.00057870  16 t-inv F
 -0.416667 -0.166667 -0.000000    0.00057870  17 t-inv F
 -0.166667  0.416667  0.000000    0.00057870  17 t-inv F
  0.166667 -0.416667 -0.000000    0.00057870  17 t-inv F
 -0.416667  0.166667 -0.000000    0.00057870  17 t-inv F
  0.416667 -0.166667  0.000000    0.00057870  17 t-inv F
  0.166667  0.416667 -0.000000    0.00057870  17 t-inv F
 -0.166667 -0.416667  0.000000    0.00057870  17 t-inv F
 -0.500000 -0.166667 -0.000000    0.00057870  18 t-inv F
 -0.166667  0.500000  0.000000    0.00057870  18 t-inv F
  0.166667 -0.500000 -0.000000    0.00057870  18 t-inv F
 -0.250000 -0.250000 -0.000000    0.00057870  19 t-inv F
 -0.250000  0.250000  0.000000    0.00057870  19 t-inv F
  0.250000 -0.250000 -0.000000    0.00057870  19 t-inv F
 -0.333333 -0.250000 -0.000000    0.00057870  20 t-inv F
 -0.250000  0.333333  0.000000    0.00057870  20 t-inv F
  0.250000 -0.333333 -0.000000    0.00057870  20 t-inv F
 -0.333333  0.250000 -0.000000    0.00057870  20 t-inv F
  0.333333 -0.250000  0.000000    0.00057870  20 t-inv F
  0.250000  0.333333 -0.000000    0.00057870  20 t-inv F
 -0.250000 -0.333333  0.000000    0.00057870  20 t-inv F
 -0.416667 -0.250000 -0.000000    0.00057870  21 t-inv F
 -0.250000  0.416667  0.000000    0.00057870  21 t-inv F
  0.250000 -0.416667 -0.000000    0.00057870  21 t-inv F
 -0.416667  0.250000 -0.000000    0.00057870  21 t-inv F
  0.416667 -0.250000  0.000000    0.00057870  21 t-inv F
  0.250000  0.416667 -0.000000    0.00057870  21 t-inv F
 -0.250000 -0.416667  0.000000    0.00057870  21 t-inv F
 -0.500000 -0.250000 -0.000000    0.00057870  22 t-inv F
 -0.250000  0.500000  0.000000    0.00057870  22 t-inv F
  0.250000 -0.500000 -0.000000    0.00057870  22 t-inv F
 -0.333333 -0.333333 -0.000000    0.00057870  23 t-inv F
 -0.333333  0.333333  0.000000    0.00057870  23 t-inv F
  0.333333 -0.333333 -0.000000    0.00057870  23 t-inv F
 -0.416667 -0.333333 -0.000000    0.00057870  24 t-inv F
 -0.333333  0.416667  0.000000    0.00057870  24 t-inv F
  0.333333 -0.416667 -0.000000    0.00057870  24 t-inv F
 -0.416667  0.333333 -0.000000    0.00057870  24 t-inv F
  0.416667 -0.333333  0.000000    0.00057870  24 t-inv F
  0.333333  0.416667 -0.000000    0.00057870  24 t-inv F
 -0.333333 -0.416667  0.000000    0.00057870  24 t-inv F
 -0.500000 -0.333333 -0.000000    0.00057870  25 t-inv F
 -0.333333  0.500000  0.000000    0.00057870  25 t-inv F
  0.333333 -0.500000 -0.000000    0.00057870  25 t-inv F
 -0.416667 -0.416667 -0.000000    0.00057870  26 t-inv F
 -0.416667  0.416667  0.000000    0.00057870  26 t-inv F
  0.416667 -0.416667 -0.000000    0.00057870  26 t-inv F
 -0.500000 -0.416667 -0.000000    0.00057870  27 t-inv F
 -0.416667  0.500000  0.000000    0.00057870  27 t-inv F
  0.416667 -0.500000 -0.000000    0.00057870  27 t-inv F
 -0.000000 -0.000000 -0.083333    0.00057870  29 t-inv F
 -0.083333 -0.000000 -0.083333    0.00057870  30 t-inv F
 -0.000000  0.083333  0.083333    0.00057870  30 t-inv F
  0.000000 -0.083333 -0.083333    0.00057870  30 t-inv F
 -0.083333 -0.000000  0.083333    0.00057870  30 t-inv F
  0.083333  0.000000 -0.083333    0.00057870  30 t-inv F
  0.000000 -0.083333  0.083333    0.00057870  30 t-inv F
 -0.000000  0.083333 -0.083333    0.00057870  30 t-inv F
 -0.166667 -0.000000 -0.083333    0.00057870  31 t-inv F
 -0.000000  0.166667  0.083333    0.00057870  31 t-inv F
  0.000000 -0.166667 -0.083333    0.00057870  31 t-inv F
 -0.166667 -0.000000  0.083333    0.00057870  31 t-inv F
  0.166667  0.000000 -0.083333    0.00057870  31 t-inv F
  0.000000 -0.166667  0.083333    0.00057870  31 t-inv F
 -0.000000  0.166667 -0.083333    0.00057870  31 t-inv F
 -0.250000 -0.000000 -0.083333    0.00057870  32 t-inv F
 -0.000000  0.250000  0.083333    0.00057870  32 t-inv F
  0.000000 -0.250000 -0.083333    0.00057870  32 t-inv F
 -0.250000 -0.000000  0.083333    0.00057870  32 t-inv F
  0.250000  0.000000 -0.083333    0.00057870  32 t-inv F
  0.000000 -0.250000  0.083333    0.00057870  32 t-inv F
 -0.000000  0.250000 -0.083333    0.00057870  32 t-inv F
 -0.333333 -0.000000 -0.083333    0.00057870  33 t-inv F
 -0.000000  0.333333  0.083333    0.00057870  33 t-inv F
  0.000000 -0.333333 -0.083333    0.00057870  33 t-inv F
 -0.333333 -0.000000  0.083333    0.00057870  33 t-inv F
  0.333333  0.000000 -0.083333    0.00057870  33 t-inv F
  0.000000 -0.333333  0.083333    0.00057870  33 t-inv F
 -0.000000  0.333333 -0.083333    0.00057870  33 t-inv F
 -0.416667 -0.000000 -0.083333    0.00057870  34 t-inv F
 -0.000000  0.416667  0.083333    0.00057870  34 t-inv F
  0.000000 -0.416667 -0.083333    0.00057870  34 t-inv F
 -0.416667 -0.000000  0.083333    0.00057870  34 t-inv F
  0.416667  0.000000 -0.083333    0.00057870  34 t-inv F
  0.000000 -0.416667  0.083333    0.00057870  34 t-inv F
 -0.000000  0.416667 -0.083333    0.00057870  34 t-inv F
 -0.500000 -0.000000 -0.083333    0.00057870  35 t-inv F
 -0.000000  0.500000  0.083333    0.00057870  35 t-inv F
  0.000000 -0.500000 -0.083333    0.00057870  35 t-inv F
 -0.083333 -0.083333 -0.083333    0.00057870  36 t-inv F
 -0.083333  0.083333  0.083333    0.00057870  36 t-inv F
  0.083333 -0.083333 -0.083333    0.00057870  36 t-inv F
 -0.083333 -0.083333  0.083333    0.00057870  36 t-inv F
  0.083333  0.083333 -0.083333    0.00057870  36 t-inv F
  0.083333 -0.083333  0.083333    0.00057870  36 t-inv F
 -0.083333  0.083333 -0.083333    0.00057870  36 t-inv F
 -0.166667 -0.083333 -0.083333    0.00057870  37 t-inv F
 -0.083333  0.166667  0.083333    0.00057870  37 t-inv F
  0.083333 -0.166667 -0.083333    0.00057870  37 t-inv F
 -0.166667 -0.083333  0.083333    0.00057870  37 t-inv F
  0.166667  0.083333 -0.083333    0.00057870  37 t-inv F
  0.083333 -0.166667  0.083333    0.00057870  37 t-inv F
 -0.083333  0.166667 -0.083333    0.00057870  37 t-inv F
 -0.166667  0.083333 -0.083333    0.00057870  37 t-inv F
  0.166667 -0.083333  0.083333    0.00057870  37 t-inv F
  0.083333  0.166667 -0.083333    0.00057870  37 t-inv F
 -0.083333 -0.166667  0.083333    0.00057870  37 t-inv F
  0.166667 -0.083333 -0.083333    0.00057870  37 t-inv F
 -0.166667  0.083333  0.083333    0.00057870  37 t-inv F
 -0.083333 -0.166667 -0.083333    0.00057870  37 t-inv F
  0.083333  0.166667  0.083333    0.00057870  37 t-inv F
 -0.250000 -0.083333 -0.083333    0.00057870  38 t-inv F
 -0.083333  0.250000  0.083333    0.00057870  38 t-inv F
  0.083333 -0.250000 -0.083333    0.00057870  38 t-inv F
 -0.250000 -0.083333  0.083333    0.00057870  38 t-inv F
  0.250000  0.083333 -0.083333    0.00057870  38 t-inv F
  0.083333 -0.250000  0.083333    0.00057870  38 t-inv F
 -0.083333  0.250000 -0.083333    0.00057870  38 t-inv F
 -0.250000  0.083333 -0.083333    0.00057870  38 t-inv F
  0.250000 -0.083333  0.083333    0.00057870  38 t-inv F
  0.083333  0.250000 -0.083333    0.00057870  38 t-inv F
 -0.083333 -0.250000  0.083333    0.00057870  38 t-inv F
  0.250000 -0.083333 -0.083333    0.00057870  38 t-inv F
 -0.250000  0.083333  0.083333    0.00057870  38 t-inv F
 -0.083333 -0.250000 -0.083333    0.00057870  38 t-inv F
  0.083333  0.250000  0.083333    0.00057870  38 t-inv F
 -0.333333 -0.083333 -0.083333    0.00057870  39 t-inv F
 -0.083333  0.333333  0.083333    0.00057870  39 t-inv F
  0.083333 -0.333333 -0.083333    0.00057870  39 t-inv F
 -0.333333 -0.083333  0.083333    0.00057870  39 t-inv F
  0.333333  0.083333 -0.083333    0.00057870  39 t-inv F
  0.083333 -0.333333  0.083333    0.00057870  39 t-inv F
 -0.083333  0.333333 -0.083333    0.00057870  39 t-inv F
 -0.333333  0.083333 -0.083333    0.00057870  39 t-inv F
  0.333333 -0.083333  0.083333    0.00057870  39 t-inv F
  0.083333  0.333333 -0.083333    0.00057870  39 t-inv F
 -0.083333 -0.333333  0.083333    0.00057870  39 t-inv F
  0.333333 -0.083333 -0.083333    0.00057870  39 t-inv F
 -0.333333  0.083333  0.083333    0.00057870  39 t-inv F
 -0.083333 -0.333333 -0.083333    0.00057870  39 t-inv F
  0.083333  0.333333  0.083333    0.00057870  39 t-inv F
 -0.416667 -0.083333 -0.083333    0.00057870  40 t-inv F
 -0.083333  0.416667  0.083333    0.00057870  40 t-inv F
  0.083333 -0.416667 -0.083333    0.00057870  40 t-inv F
 -0.416667 -0.083333  0.083333    0.00057870  40 t-inv F
  0.416667  0.083333 -0.083333    0.00057870  40 t-inv F
  0.083333 -0.416667  0.083333    0.00057870  40 t-inv F
 -0.083333  0.416667 -0.083333    0.00057870  40 t-inv F
 -0.416667  0.083333 -0.083333    0.00057870  40 t-inv F
  0.416667 -0.083333  0.083333    0.00057870  40 t-inv F
  0.083333  0.416667 -0.083333    0.00057870  40 t-inv F
 -0.083333 -0.416667  0.083333    0.00057870  40 t-inv F
  0.416667 -0.083333 -0.083333    0.00057870  40 t-inv F
 -0.416667  0.083333  0.083333    0.00057870  40 t-inv F
 -0.083333 -0.416667 -0.083333    0.00057870  40 t-inv F
  0.083333  0.416667  0.083333    0.00057870  40 t-inv F
 -0.500000 -0.083333 -0.083333    0.00057870  41 t-inv F
 -0.083333  0.500000  0.083333    0.00057870  41 t-inv F
  0.083333 -0.500000 -0.083333    0.00057870  41 t-inv F
 -0.500000 -0.083333  0.083333    0.00057870  41 t-inv F
  0.500000  0.083333 -0.083333    0.00057870  41 t-inv F
  0.083333 -0.500000  0.083333    0.00057870  41 t-inv F
 -0.083333  0.500000 -0.083333    0.00057870  41 t-inv F
 -0.166667 -0.166667 -0.083333    0.00057870  42 t-inv F
 -0.166667  0.166667  0.083333    0.00057870  42 t-inv F
  0.166667 -0.166667 -0.083333    0.00057870  42 t-inv F
 -0.166667 -0.166667  0.083333    0.00057870  42 t-inv F
  0.166667  0.166667 -0.083333    0.00057870  42 t-inv F
  0.166667 -0.166667  0.083333    0.00057870  42 t-inv F
 -0.166667  0.166667 -0.083333    0.00057870  42 t-inv F
 -0.250000 -0.166667 -0.083333    0.00057870  43 t-inv F
 -0.166667  0.250000  0.083333    0.00057870  43 t-inv F
  0.166667 -0.250000 -0.083333    0.00057870  43 t-inv F
 -0.250000 -0.166667  0.083333    0.00057870  43 t-inv F
  0.250000  0.166667 -0.083333    0.00057870  43 t-inv F
  0.166667 -0.250000  0.083333    0.00057870  43 t-inv F
 -0.166667  0.250000 -0.083333    0.00057870  43 t-inv F
 -0.250000  0.166667 -0.083333    0.00057870  43 t-inv F
  0.250000 -0.166667  0.083333    0.00057870  43 t-inv F
  0.166667  0.250000 -0.083333    0.00057870  43 t-inv F
 -0.166667 -0.250000  0.083333    0.00057870  43 t-inv F
  0.250000 -0.166667 -0.083333    0.00057870  43 t-inv F
 -0.250000  0.166667  0.083333    0.00057870  43 t-inv F
 -0.166667 -0.250000 -0.083333    0.00057870  43 t-inv F
  0.166667  0.250000  0.083333    0.00057870  43 t-inv F
 -0.333333 -0.166667 -0.083333    0.00057870  44 t-inv F
 -0.166667  0.333333  0.083333    0.00057870  44 t-inv F
  0.166667 -0.333333 -0.083333    0.00057870  44 t-inv F
 -0.333333 -0.166667  0.083333    0.00057870  44 t-inv F
  0.333333  0.166667 -0.083333    0.00057870  44 t-inv F
  0.166667 -0.333333  0.083333    0.00057870  44 t-inv F
 -0.166667  0.333333 -0.083333    0.00057870  44 t-inv F
 -0.333333  0.166667 -0.083333    0.00057870  44 t-inv F
  0.333333 -0.166667  0.083333    0.00057870  44 t-inv F
  0.166667  0.333333 -0.083333    0.00057870  44 t-inv F
 -0.166667 -0.333333  0.083333    0.00057870  44 t-inv F
  0.333333 -0.166667 -0.083333    0.00057870  44 t-inv F
 -0.333333  0.166667  0.083333    0.00057870  44 t-inv F
 -0.166667 -0.333333 -0.083333    0.00057870  44 t-inv F
  0.166667  0.333333  0.083333    0.00057870  44 t-inv F
 -0.416667 -0.166667 -0.083333    0.00057870  45 t-inv F
 -0.166667  0.416667  0.083333    0.00057870  45 t-inv F
  0.166667 -0.416667 -0.083333    0.00057870  45 t-inv F
 -0.416667 -0.166667  0.083333    0.00057870  45 t-inv F
  0.416667  0.166667 -0.083333    0.00057870  45 t-inv F
  0.166667 -0.416667  0.083333    0.00057870  45 t-inv F
 -0.166667  0.416667 -0.083333    0.00057870  45 t-inv F
 -0.416667  0.166667 -0.083333    0.00057870  45 t-inv F
  0.416667 -0.166667  0.083333    0.00057870  45 t-inv F
  0.166667  0.416667 -0.083333    0.00057870  45 t-inv F
 -0.166667 -0.416667  0.083333    0.00057870  45 t-inv F
  0.416667 -0.166667 -0.083333    0.00057870  45 t-inv F
 -0.416667  0.166667  0.083333    0.00057870  45 t-inv F
 -0.166667 -0.416667 -0.083333    0.00057870  45 t-inv F
  0.166667  0.416667  0.083333    0.00057870  45 t-inv F
 -0.500000 -0.166667 -0.083333    0.00057870  46 t-inv F
 -0.166667  0.500000  0.083333    0.00057870  46 t-inv F
  0.166667 -0.500000 -0.083333    0.00057870  46 t-inv F
 -0.500000 -0.166667  0.083333    0.00057870  46 t-inv F
  0.500000  0.166667 -0.083333    0.00057870  46 t-inv F
  0.166667 -0.500000  0.083333    0.00057870  46 t-inv F
 -0.166667  0.500000 -0.083333    0.00057870  46 t-inv F
 -0.250000 -0.250000 -0.083333    0.00057870  47 t-inv F
 -0.250000  0.250000  0.083333    0.00057870  47 t-inv F
  0.250000 -0.250000 -0.083333    0.00057870  47 t-inv F
 -0.250000 -0.250000  0.083333    0.00057870  47 t-inv F
  0.250000  0.250000 -0.083333    0.00057870  47 t-inv F
  0.250000 -0.250000  0.083333    0.00057870  47 t-inv F
 -0.250000  0.250000 -0.083333    0.00057870  47 t-inv F
 -0.333333 -0.250000 -0.083333    0.00057870  48 t-inv F
 -0.250000  0.333333  0.083333    0.00057870  48 t-inv F
  0.250000 -0.333333 -0.083333    0.00057870  48 t-inv F
 -0.333333 -0.250000  0.083333    0.00057870  48 t-inv F
  0.333333  0.250000 -0.083333    0.00057870  48 t-inv F
  0.250000 -0.333333  0.083333    0.00057870  48 t-inv F
 -0.250000  0.333333 -0.083333    0.00057870  48 t-inv F
 -0.333333  0.250000 -0.083333    0.00057870  48 t-inv F
  0.333333 -0.250000  0.083333    0.00057870  48 t-inv F
  0.250000  0.333333 -0.083333    0.00057870  48 t-inv F
 -0.250000 -0.333333  0.083333    0.00057870  48 t-inv F
  0.333333 -0.250000 -0.083333    0.00057870  48 t-inv F
 -0.333333  0.250000  0.083333    0.00057870  48 t-inv F
 -0.250000 -0.333333 -0.083333    0.00057870  48 t-inv F
  0.250000  0.333333  0.083333    0.00057870  48 t-inv F
 -0.416667 -0.250000 -0.083333    0.00057870  49 t-inv F
 -0.250000  0.416667  0.083333    0.00057870  49 t-inv F
  0.250000 -0.416667 -0.083333    0.00057870  49 t-inv F
 -0.416667 -0.250000  0.083333    0.00057870  49 t-inv F
  0.416667  0.250000 -0.083333    0.00057870  49 t-inv F
  0.250000 -0.416667  0.083333    0.00057870  49 t-inv F
 -0.250000  0.416667 -0.083333    0.00057870  49 t-inv F
 -0.416667  0.250000 -0.083333    0.00057870  49 t-inv F
  0.416667 -0.250000  0.083333    0.00057870  49 t-inv F
  0.250000  0.416667 -0.083333    0.00057870  49 t-inv F
 -0.250000 -0.416667  0.083333    0.00057870  49 t-inv F
  0.416667 -0.250000 -0.083333    0.00057870  49 t-inv F
 -0.416667  0.250000  0.083333    0.00057870  49 t-inv F
 -0.250000 -0.416667 -0.083333    0.00057870  49 t-inv F
  0.250000  0.416667  0.083333    0.00057870  49 t-inv F
 -0.500000 -0.250000 -0.083333    0.00057870  50 t-inv F
 -0.250000  0.500000  0.083333    0.00057870  50 t-inv F
  0.250000 -0.500000 -0.083333    0.00057870  50 t-inv F
 -0.500000 -0.250000  0.083333    0.00057870  50 t-inv F
  0.500000  0.250000 -0.083333    0.00057870  50 t-inv F
  0.250000 -0.500000  0.083333    0.00057870  50 t-inv F
 -0.250000  0.500000 -0.083333    0.00057870  50 t-inv F
 -0.333333 -0.333333 -0.083333    0.00057870  51 t-inv F
 -0.333333  0.333333  0.083333    0.00057870  51 t-inv F
  0.333333 -0.333333 -0.083333    0.00057870  51 t-inv F
 -0.333333 -0.333333  0.083333    0.00057870  51 t-inv F
  0.333333  0.333333 -0.083333    0.00057870  51 t-inv F
  0.333333 -0.333333  0.083333    0.00057870  51 t-inv F
 -0.333333  0.333333 -0.083333    0.00057870  51 t-inv F
 -0.416667 -0.333333 -0.083333    0.00057870  52 t-inv F
 -0.333333  0.416667  0.083333    0.00057870  52 t-inv F
  0.333333 -0.416667 -0.083333    0.00057870  52 t-inv F
 -0.416667 -0.333333  0.083333    0.00057870  52 t-inv F
  0.416667  0.333333 -0.083333    0.00057870  52 t-inv F
  0.333333 -0.416667  0.083333    0.00057870  52 t-inv F
 -0.333333  0.416667 -0.083333    0.00057870  52 t-inv F
 -0.416667  0.333333 -0.083333    0.00057870  52 t-inv F
  0.416667 -0.333333  0.083333    0.00057870  52 t-inv F
  0.333333  0.416667 -0.083333    0.00057870  52 t-inv F
 -0.333333 -0.416667  0.083333    0.00057870  52 t-inv F
  0.416667 -0.333333 -0.083333    0.00057870  52 t-inv F
 -0.416667  0.333333  0.083333    0.00057870  52 t-inv F
 -0.333333 -0.416667 -0.083333    0.00057870  52 t-inv F
  0.333333  0.416667  0.083333    0.00057870  52 t-inv F
 -0.500000 -0.333333 -0.083333    0.00057870  53 t-inv F
 -0.333333  0.500000  0.083333    0.00057870  53 t-inv F
  0.333333 -0.500000 -0.083333    0.00057870  53 t-inv F
 -0.500000 -0.333333  0.083333    0.00057870  53 t-inv F
  0.500000  0.333333 -0.083333    0.00057870  53 t-inv F
  0.333333 -0.500000  0.083333    0.00057870  53 t-inv F
 -0.333333  0.500000 -0.083333    0.00057870  53 t-inv F
 -0.416667 -0.416667 -0.083333    0.00057870  54 t-inv F
 -0.416667  0.416667  0.083333    0.00057870  54 t-inv F
  0.416667 -0.416667 -0.083333    0.00057870  54 t-inv F
 -0.416667 -0.416667  0.083333    0.00057870  54 t-inv F
  0.416667  0.416667 -0.083333    0.00057870  54 t-inv F
  0.416667 -0.416667  0.083333    0.00057870  54 t-inv F
 -0.416667  0.416667 -0.083333    0.00057870  54 t-inv F
 -0.500000 -0.416667 -0.083333    0.00057870  55 t-inv F
 -0.416667  0.500000  0.083333    0.00057870  55 t-inv F
  0.416667 -0.500000 -0.083333    0.00057870  55 t-inv F
 -0.500000 -0.416667  0.083333    0.00057870  55 t-inv F
  0.500000  0.416667 -0.083333    0.00057870  55 t-inv F
  0.416667 -0.500000  0.083333    0.00057870  55 t-inv F
 -0.416667  0.500000 -0.083333    0.00057870  55 t-inv F
 -0.500000 -0.500000 -0.083333    0.00057870  56 t-inv F
 -0.000000 -0.000000 -0.166667    0.00057870  57 t-inv F
 -0.083333 -0.000000 -0.166667    0.00057870  58 t-inv F
 -0.000000  0.083333  0.166667    0.00057870  58 t-inv F
  0.000000 -0.083333 -0.166667    0.00057870  58 t-inv F
 -0.083333 -0.000000  0.166667    0.00057870  58 t-inv F
  0.083333  0.000000 -0.166667    0.00057870  58 t-inv F
  0.000000 -0.083333  0.166667    0.00057870  58 t-inv F
 -0.000000  0.083333 -0.166667    0.00057870  58 t-inv F
 -0.166667 -0.000000 -0.166667    0.00057870  59 t-inv F
 -0.000000  0.166667  0.166667    0.00057870  59 t-inv F
  0.000000 -0.166667 -0.166667    0.00057870  59 t-inv F
 -0.166667 -0.000000  0.166667    0.00057870  59 t-inv F
  0.166667  0.000000 -0.166667    0.00057870  59 t-inv F
  0.000000 -0.166667  0.166667    0.00057870  59 t-inv F
 -0.000000  0.166667 -0.166667    0.00057870  59 t-inv F
 -0.250000 -0.000000 -0.166667    0.00057870  60 t-inv F
 -0.000000  0.250000  0.166667    0.00057870  60 t-inv F
  0.000000 -0.250000 -0.166667    0.00057870  60 t-inv F
 -0.250000 -0.000000  0.166667    0.00057870  60 t-inv F
  0.250000  0.000000 -0.166667    0.00057870  60 t-inv F
  0.000000 -0.250000  0.166667    0.00057870  60 t-inv F
 -0.000000  0.250000 -0.166667    0.00057870  60 t-inv F
 -0.333333 -0.000000 -0.166667    0.00057870  61 t-inv F
 -0.000000  0.333333  0.166667    0.00057870  61 t-inv F
  0.000000 -0.333333 -0.166667    0.00057870  61 t-inv F
 -0.333333 -0.000000  0.166667    0.00057870  61 t-inv F
  0.333333  0.000000 -0.166667    0.00057870  61 t-inv F
  0.000000 -0.333333  0.166667    0.00057870  61 t-inv F
 -0.000000  0.333333 -0.166667    0.00057870  61 t-inv F
 -0.416667 -0.000000 -0.166667    0.00057870  62 t-inv F
 -0.000000  0.416667  0.166667    0.00057870  62 t-inv F
  0.000000 -0.416667 -0.166667    0.00057870  62 t-inv F
 -0.416667 -0.000000  0.166667    0.00057870  62 t-inv F
  0.416667  0.000000 -0.166667    0.00057870  62 t-inv F
  0.000000 -0.416667  0.166667    0.00057870  62 t-inv F
 -0.000000  0.416667 -0.166667    0.00057870  62 t-inv F
 -0.500000 -0.000000 -0.166667    0.00057870  63 t-inv F
 -0.000000  0.500000  0.166667    0.00057870  63 t-inv F
  0.000000 -0.500000 -0.166667    0.00057870  63 t-inv F
 -0.083333 -0.083333 -0.166667    0.00057870  64 t-inv F
 -0.083333  0.083333  0.166667    0.00057870  64 t-inv F
  0.083333 -0.083333 -0.166667    0.00057870  64 t-inv F
 -0.083333 -0.083333  0.166667    0.00057870  64 t-inv F
  0.083333  0.083333 -0.166667    0.00057870  64 t-inv F
  0.083333 -0.083333  0.166667    0.00057870  64 t-inv F
 -0.083333  0.083333 -0.166667    0.00057870  64 t-inv F
 -0.166667 -0.083333 -0.166667    0.00057870  65 t-inv F
 -0.083333  0.166667  0.166667    0.00057870  65 t-inv F
  0.083333 -0.166667 -0.166667    0.00057870  65 t-inv F
 -0.166667 -0.083333  0.166667    0.00057870  65 t-inv F
  0.166667  0.083333 -0.166667    0.00057870  65 t-inv F
  0.083333 -0.166667  0.166667    0.00057870  65 t-inv F
 -0.083333  0.166667 -0.166667    0.00057870  65 t-inv F
 -0.166667  0.083333 -0.166667    0.00057870  65 t-inv F
  0.166667 -0.083333  0.166667    0.00057870  65 t-inv F
  0.083333  0.166667 -0.166667    0.00057870  65 t-inv F
 -0.083333 -0.166667  0.166667    0.00057870  65 t-inv F
  0.166667 -0.083333 -0.166667    0.00057870  65 t-inv F
 -0.166667  0.083333  0.166667    0.00057870  65 t-inv F
 -0.083333 -0.166667 -0.166667    0.00057870  65 t-inv F
  0.083333  0.166667  0.166667    0.00057870  65 t-inv F
 -0.250000 -0.083333 -0.166667    0.00057870  66 t-inv F
 -0.083333  0.250000  0.166667    0.00057870  66 t-inv F
  0.083333 -0.250000 -0.166667    0.00057870  66 t-inv F
 -0.250000 -0.083333  0.166667    0.00057870  66 t-inv F
  0.250000  0.083333 -0.166667    0.00057870  66 t-inv F
  0.083333 -0.250000  0.166667    0.00057870  66 t-inv F
 -0.083333  0.250000 -0.166667    0.00057870  66 t-inv F
 -0.250000  0.083333 -0.166667    0.00057870  66 t-inv F
  0.250000 -0.083333  0.166667    0.00057870  66 t-inv F
  0.083333  0.250000 -0.166667    0.00057870  66 t-inv F
 -0.083333 -0.250000  0.166667    0.00057870  66 t-inv F
  0.250000 -0.083333 -0.166667    0.00057870  66 t-inv F
 -0.250000  0.083333  0.166667    0.00057870  66 t-inv F
 -0.083333 -0.250000 -0.166667    0.00057870  66 t-inv F
  0.083333  0.250000  0.166667    0.00057870  66 t-inv F
 -0.333333 -0.083333 -0.166667    0.00057870  67 t-inv F
 -0.083333  0.333333  0.166667    0.00057870  67 t-inv F
  0.083333 -0.333333 -0.166667    0.00057870  67 t-inv F
 -0.333333 -0.083333  0.166667    0.00057870  67 t-inv F
  0.333333  0.083333 -0.166667    0.00057870  67 t-inv F
  0.083333 -0.333333  0.166667    0.00057870  67 t-inv F
 -0.083333  0.333333 -0.166667    0.00057870  67 t-inv F
 -0.333333  0.083333 -0.166667    0.00057870  67 t-inv F
  0.333333 -0.083333  0.166667    0.00057870  67 t-inv F
  0.083333  0.333333 -0.166667    0.00057870  67 t-inv F
 -0.083333 -0.333333  0.166667    0.00057870  67 t-inv F
  0.333333 -0.083333 -0.166667    0.00057870  67 t-inv F
 -0.333333  0.083333  0.166667    0.00057870  67 t-inv F
 -0.083333 -0.333333 -0.166667    0.00057870  67 t-inv F
  0.083333  0.333333  0.166667    0.00057870  67 t-inv F
 -0.416667 -0.083333 -0.166667    0.00057870  68 t-inv F
 -0.083333  0.416667  0.166667    0.00057870  68 t-inv F
  0.083333 -0.416667 -0.166667    0.00057870  68 t-inv F
 -0.416667 -0.083333  0.166667    0.00057870  68 t-inv F
  0.416667  0.083333 -0.166667    0.00057870  68 t-inv F
  0.083333 -0.416667  0.166667    0.00057870  68 t-inv F
 -0.083333  0.416667 -0.166667    0.00057870  68 t-inv F
 -0.416667  0.083333 -0.166667    0.00057870  68 t-inv F
  0.416667 -0.083333  0.166667    0.00057870  68 t-inv F
  0.083333  0.416667 -0.166667    0.00057870  68 t-inv F
 -0.083333 -0.416667  0.166667    0.00057870  68 t-inv F
  0.416667 -0.083333 -0.166667    0.00057870  68 t-inv F
 -0.416667  0.083333  0.166667    0.00057870  68 t-inv F
 -0.083333 -0.416667 -0.166667    0.00057870  68 t-inv F
  0.083333  0.416667  0.166667    0.00057870  68 t-inv F
 -0.500000 -0.083333 -0.166667    0.00057870  69 t-inv F
 -0.083333  0.500000  0.166667    0.00057870  69 t-inv F
  0.083333 -0.500000 -0.166667    0.00057870  69 t-inv F
 -0.500000 -0.083333  0.166667    0.00057870  69 t-inv F
  0.500000  0.083333 -0.166667    0.00057870  69 t-inv F
  0.083333 -0.500000  0.166667    0.00057870  69 t-inv F
 -0.083333  0.500000 -0.166667    0.00057870  69 t-inv F
 -0.166667 -0.166667 -0.166667    0.00057870  70 t-inv F
 -0.166667  0.166667  0.166667    0.00057870  70 t-inv F
  0.166667 -0.166667 -0.166667    0.00057870  70 t-inv F
 -0.166667 -0.166667  0.166667    0.00057870  70 t-inv F
  0.166667  0.166667 -0.166667    0.00057870  70 t-inv F
  0.166667 -0.166667  0.166667    0.00057870  70 t-inv F
 -0.166667  0.166667 -0.166667    0.00057870  70 t-inv F
 -0.250000 -0.166667 -0.166667    0.00057870  71 t-inv F
 -0.166667  0.250000  0.166667    0.00057870  71 t-inv F
  0.166667 -0.250000 -0.166667    0.00057870  71 t-inv F
 -0.250000 -0.166667  0.166667    0.00057870  71 t-inv F
  0.250000  0.166667 -0.166667    0.00057870  71 t-inv F
  0.166667 -0.250000  0.166667    0.00057870  71 t-inv F
 -0.166667  0.250000 -0.166667    0.00057870  71 t-inv F
 -0.250000  0.166667 -0.166667    0.00057870  71 t-inv F
  0.250000 -0.166667  0.166667    0.00057870  71 t-inv F
  0.166667  0.250000 -0.166667    0.00057870  71 t-inv F
 -0.166667 -0.250000  0.166667    0.00057870  71 t-inv F
  0.250000 -0.166667 -0.166667    0.00057870  71 t-inv F
 -0.250000  0.166667  0.166667    0.00057870  71 t-inv F
 -0.166667 -0.250000 -0.166667    0.00057870  71 t-inv F
  0.166667  0.250000  0.166667    0.00057870  71 t-inv F
 -0.333333 -0.166667 -0.166667    0.00057870  72 t-inv F
 -0.166667  0.333333  0.166667    0.00057870  72 t-inv F
  0.166667 -0.333333 -0.166667    0.00057870  72 t-inv F
 -0.333333 -0.166667  0.166667    0.00057870  72 t-inv F
  0.333333  0.166667 -0.166667    0.00057870  72 t-inv F
  0.166667 -0.333333  0.166667    0.00057870  72 t-inv F
 -0.166667  0.333333 -0.166667    0.00057870  72 t-inv F
 -0.333333  0.166667 -0.166667    0.00057870  72 t-inv F
  0.333333 -0.166667  0.166667    0.00057870  72 t-inv F
  0.166667  0.333333 -0.166667    0.00057870  72 t-inv F
 -0.166667 -0.333333  0.166667    0.00057870  72 t-inv F
  0.333333 -0.166667 -0.166667    0.00057870  72 t-inv F
 -0.333333  0.166667  0.166667    0.00057870  72 t-inv F
 -0.166667 -0.333333 -0.166667    0.00057870  72 t-inv F
  0.166667  0.333333  0.166667    0.00057870  72 t-inv F
 -0.416667 -0.166667 -0.166667    0.00057870  73 t-inv F
 -0.166667  0.416667  0.166667    0.00057870  73 t-inv F
  0.166667 -0.416667 -0.166667    0.00057870  73 t-inv F
 -0.416667 -0.166667  0.166667    0.00057870  73 t-inv F
  0.416667  0.166667 -0.166667    0.00057870  73 t-inv F
  0.166667 -0.416667  0.166667    0.00057870  73 t-inv F
 -0.166667  0.416667 -0.166667    0.00057870  73 t-inv F
 -0.416667  0.166667 -0.166667    0.00057870  73 t-inv F
  0.416667 -0.166667  0.166667    0.00057870  73 t-inv F
  0.166667  0.416667 -0.166667    0.00057870  73 t-inv F
 -0.166667 -0.416667  0.166667    0.00057870  73 t-inv F
  0.416667 -0.166667 -0.166667    0.00057870  73 t-inv F
 -0.416667  0.166667  0.166667    0.00057870  73 t-inv F
 -0.166667 -0.416667 -0.166667    0.00057870  73 t-inv F
  0.166667  0.416667  0.166667    0.00057870  73 t-inv F
 -0.500000 -0.166667 -0.166667    0.00057870  74 t-inv F
 -0.166667  0.500000  0.166667    0.00057870  74 t-inv F
  0.166667 -0.500000 -0.166667    0.00057870  74 t-inv F
 -0.500000 -0.166667  0.166667    0.00057870  74 t-inv F
  0.500000  0.166667 -0.166667    0.00057870  74 t-inv F
  0.166667 -0.500000  0.166667    0.00057870  74 t-inv F
 -0.166667  0.500000 -0.166667    0.00057870  74 t-inv F
 -0.250000 -0.250000 -0.166667    0.00057870  75 t-inv F
 -0.250000  0.250000  0.166667    0.00057870  75 t-inv F
  0.250000 -0.250000 -0.166667    0.00057870  75 t-inv F
 -0.250000 -0.250000  0.166667    0.00057870  75 t-inv F
  0.250000  0.250000 -0.166667    0.00057870  75 t-inv F
  0.250000 -0.250000  0.166667    0.00057870  75 t-inv F
 -0.250000  0.250000 -0.166667    0.00057870  75 t-inv F
 -0.333333 -0.250000 -0.166667    0.00057870  76 t-inv F
 -0.250000  0.333333  0.166667    0.00057870  76 t-inv F
  0.250000 -0.333333 -0.166667    0.00057870  76 t-inv F
 -0.333333 -0.250000  0.166667    0.00057870  76 t-inv F
  0.333333  0.250000 -0.166667    0.00057870  76 t-inv F
  0.250000 -0.333333  0.166667    0.00057870  76 t-inv F
 -0.250000  0.333333 -0.166667    0.00057870  76 t-inv F
 -0.333333  0.250000 -0.166667    0.00057870  76 t-inv F
  0.333333 -0.250000  0.166667    0.00057870  76 t-inv F
  0.250000  0.333333 -0.166667    0.00057870  76 t-inv F
 -0.250000 -0.333333  0.166667    0.00057870  76 t-inv F
  0.333333 -0.250000 -0.166667    0.00057870  76 t-inv F
 -0.333333  0.250000  0.166667    0.00057870  76 t-inv F
 -0.250000 -0.333333 -0.166667    0.00057870  76 t-inv F
  0.250000  0.333333  0.166667    0.00057870  76 t-inv F
 -0.416667 -0.250000 -0.166667    0.00057870  77 t-inv F
 -0.250000  0.416667  0.166667    0.00057870  77 t-inv F
  0.250000 -0.416667 -0.166667    0.00057870  77 t-inv F
 -0.416667 -0.250000  0.166667    0.00057870  77 t-inv F
  0.416667  0.250000 -0.166667    0.00057870  77 t-inv F
  0.250000 -0.416667  0.166667    0.00057870  77 t-inv F
 -0.250000  0.416667 -0.166667    0.00057870  77 t-inv F
 -0.416667  0.250000 -0.166667    0.00057870  77 t-inv F
  0.416667 -0.250000  0.166667    0.00057870  77 t-inv F
  0.250000  0.416667 -0.166667    0.00057870  77 t-inv F
 -0.250000 -0.416667  0.166667    0.00057870  77 t-inv F
  0.416667 -0.250000 -0.166667    0.00057870  77 t-inv F
 -0.416667  0.250000  0.166667    0.00057870  77 t-inv F
 -0.250000 -0.416667 -0.166667    0.00057870  77 t-inv F
  0.250000  0.416667  0.166667    0.00057870  77 t-inv F
 -0.500000 -0.250000 -0.166667    0.00057870  78 t-inv F
 -0.250000  0.500000  0.166667    0.00057870  78 t-inv F
  0.250000 -0.500000 -0.166667    0.00057870  78 t-inv F
 -0.500000 -0.250000  0.166667    0.00057870  78 t-inv F
  0.500000  0.250000 -0.166667    0.00057870  78 t-inv F
  0.250000 -0.500000  0.166667    0.00057870  78 t-inv F
 -0.250000  0.500000 -0.166667    0.00057870  78 t-inv F
 -0.333333 -0.333333 -0.166667    0.00057870  79 t-inv F
 -0.333333  0.333333  0.166667    0.00057870  79 t-inv F
  0.333333 -0.333333 -0.166667    0.00057870  79 t-inv F
 -0.333333 -0.333333  0.166667    0.00057870  79 t-inv F
  0.333333  0.333333 -0.166667    0.00057870  79 t-inv F
  0.333333 -0.333333  0.166667    0.00057870  79 t-inv F
 -0.333333  0.333333 -0.166667    0.00057870  79 t-inv F
 -0.416667 -0.333333 -0.166667    0.00057870  80 t-inv F
 -0.333333  0.416667  0.166667    0.00057870  80 t-inv F
  0.333333 -0.416667 -0.166667    0.00057870  80 t-inv F
 -0.416667 -0.333333  0.166667    0.00057870  80 t-inv F
  0.416667  0.333333 -0.166667    0.00057870  80 t-inv F
  0.333333 -0.416667  0.166667    0.00057870  80 t-inv F
 -0.333333  0.416667 -0.166667    0.00057870  80 t-inv F
 -0.416667  0.333333 -0.166667    0.00057870  80 t-inv F
  0.416667 -0.333333  0.166667    0.00057870  80 t-inv F
  0.333333  0.416667 -0.166667    0.00057870  80 t-inv F
 -0.333333 -0.416667  0.166667    0.00057870  80 t-inv F
  0.416667 -0.333333 -0.166667    0.00057870  80 t-inv F
 -0.416667  0.333333  0.166667    0.00057870  80 t-inv F
 -0.333333 -0.416667 -0.166667    0.00057870  80 t-inv F
  0.333333  0.416667  0.166667    0.00057870  80 t-inv F
 -0.500000 -0.333333 -0.166667    0.00057870  81 t-inv F
 -0.333333  0.500000  0.166667    0.00057870  81 t-inv F
  0.333333 -0.500000 -0.166667    0.00057870  81 t-inv F
 -0.500000 -0.333333  0.166667    0.00057870  81 t-inv F
  0.500000  0.333333 -0.166667    0.00057870  81 t-inv F
  0.333333 -0.500000  0.166667    0.00057870  81 t-inv F
 -0.333333  0.500000 -0.166667    0.00057870  81 t-inv F
 -0.416667 -0.416667 -0.166667    0.00057870  82 t-inv F
 -0.416667  0.416667  0.166667    0.00057870  82 t-inv F
  0.416667 -0.416667 -0.166667    0.00057870  82 t-inv F
 -0.416667 -0.416667  0.166667    0.00057870  82 t-inv F
  0.416667  0.416667 -0.166667    0.00057870  82 t-inv F
  0.416667 -0.416667  0.166667    0.00057870  82 t-inv F
 -0.416667  0.416667 -0.166667    0.00057870  82 t-inv F
 -0.500000 -0.416667 -0.166667    0.00057870  83 t-inv F
 -0.416667  0.500000  0.166667    0.00057870  83 t-inv F
  0.416667 -0.500000 -0.166667    0.00057870  83 t-inv F
 -0.500000 -0.416667  0.166667    0.00057870  83 t-inv F
  0.500000  0.416667 -0.166667    0.00057870  83 t-inv F
  0.416667 -0.500000  0.166667    0.00057870  83 t-inv F
 -0.416667  0.500000 -0.166667    0.00057870  83 t-inv F
 -0.500000 -0.500000 -0.166667    0.00057870  84 t-inv F
 -0.000000 -0.000000 -0.250000    0.00057870  85 t-inv F
 -0.083333 -0.000000 -0.250000    0.00057870  86 t-inv F
 -0.000000  0.083333  0.250000    0.00057870  86 t-inv F
  0.000000 -0.083333 -0.250000    0.00057870  86 t-inv F
 -0.083333 -0.000000  0.250000    0.00057870  86 t-inv F
  0.083333  0.000000 -0.250000    0.00057870  86 t-inv F
  0.000000 -0.083333  0.250000    0.00057870  86 t-inv F
 -0.000000  0.083333 -0.250000    0.00057870  86 t-inv F
 -0.166667 -0.000000 -0.250000    0.00057870  87 t-inv F
 -0.000000  0.166667  0.250000    0.00057870  87 t-inv F
  0.000000 -0.166667 -0.250000    0.00057870  87 t-inv F
 -0.166667 -0.000000  0.250000    0.00057870  87 t-inv F
  0.166667  0.000000 -0.250000    0.00057870  87 t-inv F
  0.000000 -0.166667  0.250000    0.00057870  87 t-inv F
 -0.000000  0.166667 -0.250000    0.00057870  87 t-inv F
 -0.250000 -0.000000 -0.250000    0.00057870  88 t-inv F
 -0.000000  0.250000  0.250000    0.00057870  88 t-inv F
  0.000000 -0.250000 -0.250000    0.00057870  88 t-inv F
 -0.250000 -0.000000  0.250000    0.00057870  88 t-inv F
  0.250000  0.000000 -0.250000    0.00057870  88 t-inv F
  0.000000 -0.250000  0.250000    0.00057870  88 t-inv F
 -0.000000  0.250000 -0.250000    0.00057870  88 t-inv F
 -0.333333 -0.000000 -0.250000    0.00057870  89 t-inv F
 -0.000000  0.333333  0.250000    0.00057870  89 t-inv F
  0.000000 -0.333333 -0.250000    0.00057870  89 t-inv F
 -0.333333 -0.000000  0.250000    0.00057870  89 t-inv F
  0.333333  0.000000 -0.250000    0.00057870  89 t-inv F
  0.000000 -0.333333  0.250000    0.00057870  89 t-inv F
 -0.000000  0.333333 -0.250000    0.00057870  89 t-inv F
 -0.416667 -0.000000 -0.250000    0.00057870  90 t-inv F
 -0.000000  0.416667  0.250000    0.00057870  90 t-inv F
  0.000000 -0.416667 -0.250000    0.00057870  90 t-inv F
 -0.416667 -0.000000  0.250000    0.00057870  90 t-inv F
  0.416667  0.000000 -0.250000    0.00057870  90 t-inv F
  0.000000 -0.416667  0.250000    0.00057870  90 t-inv F
 -0.000000  0.416667 -0.250000    0.00057870  90 t-inv F
 -0.500000 -0.000000 -0.250000    0.00057870  91 t-inv F
 -0.000000  0.500000  0.250000    0.00057870  91 t-inv F
  0.000000 -0.500000 -0.250000    0.00057870  91 t-inv F
 -0.083333 -0.083333 -0.250000    0.00057870  92 t-inv F
 -0.083333  0.083333  0.250000    0.00057870  92 t-inv F
  0.083333 -0.083333 -0.250000    0.00057870  92 t-inv F
 -0.083333 -0.083333  0.250000    0.00057870  92 t-inv F
  0.083333  0.083333 -0.250000    0.00057870  92 t-inv F
  0.083333 -0.083333  0.250000    0.00057870  92 t-inv F
 -0.083333  0.083333 -0.250000    0.00057870  92 t-inv F
 -0.166667 -0.083333 -0.250000    0.00057870  93 t-inv F
 -0.083333  0.166667  0.250000    0.00057870  93 t-inv F
  0.083333 -0.166667 -0.250000    0.00057870  93 t-inv F
 -0.166667 -0.083333  0.250000    0.00057870  93 t-inv F
  0.166667  0.083333 -0.250000    0.00057870  93 t-inv F
  0.083333 -0.166667  0.250000    0.00057870  93 t-inv F
 -0.083333  0.166667 -0.250000    0.00057870  93 t-inv F
 -0.166667  0.083333 -0.250000    0.00057870  93 t-inv F
  0.166667 -0.083333  0.250000    0.00057870  93 t-inv F
  0.083333  0.166667 -0.250000    0.00057870  93 t-inv F
 -0.083333 -0.166667  0.250000    0.00057870  93 t-inv F
  0.166667 -0.083333 -0.250000    0.00057870  93 t-inv F
 -0.166667  0.083333  0.250000    0.00057870  93 t-inv F
 -0.083333 -0.166667 -0.250000    0.00057870  93 t-inv F
  0.083333  0.166667  0.250000    0.00057870  93 t-inv F
 -0.250000 -0.083333 -0.250000    0.00057870  94 t-inv F
 -0.083333  0.250000  0.250000    0.00057870  94 t-inv F
  0.083333 -0.250000 -0.250000    0.00057870  94 t-inv F
 -0.250000 -0.083333  0.250000    0.00057870  94 t-inv F
  0.250000  0.083333 -0.250000    0.00057870  94 t-inv F
  0.083333 -0.250000  0.250000    0.00057870  94 t-inv F
 -0.083333  0.250000 -0.250000    0.00057870  94 t-inv F
 -0.250000  0.083333 -0.250000    0.00057870  94 t-inv F
  0.250000 -0.083333  0.250000    0.00057870  94 t-inv F
  0.083333  0.250000 -0.250000    0.00057870  94 t-inv F
 -0.083333 -0.250000  0.250000    0.00057870  94 t-inv F
  0.250000 -0.083333 -0.250000    0.00057870  94 t-inv F
 -0.250000  0.083333  0.250000    0.00057870  94 t-inv F
 -0.083333 -0.250000 -0.250000    0.00057870  94 t-inv F
  0.083333  0.250000  0.250000    0.00057870  94 t-inv F
 -0.333333 -0.083333 -0.250000    0.00057870  95 t-inv F
 -0.083333  0.333333  0.250000    0.00057870  95 t-inv F
  0.083333 -0.333333 -0.250000    0.00057870  95 t-inv F
 -0.333333 -0.083333  0.250000    0.00057870  95 t-inv F
  0.333333  0.083333 -0.250000    0.00057870  95 t-inv F
  0.083333 -0.333333  0.250000    0.00057870  95 t-inv F
 -0.083333  0.333333 -0.250000    0.00057870  95 t-inv F
 -0.333333  0.083333 -0.250000    0.00057870  95 t-inv F
  0.333333 -0.083333  0.250000    0.00057870  95 t-inv F
  0.083333  0.333333 -0.250000    0.00057870  95 t-inv F
 -0.083333 -0.333333  0.250000    0.00057870  95 t-inv F
  0.333333 -0.083333 -0.250000    0.00057870  95 t-inv F
 -0.333333  0.083333  0.250000    0.00057870  95 t-inv F
 -0.083333 -0.333333 -0.250000    0.00057870  95 t-inv F
  0.083333  0.333333  0.250000    0.00057870  95 t-inv F
 -0.416667 -0.083333 -0.250000    0.00057870  96 t-inv F
 -0.083333  0.416667  0.250000    0.00057870  96 t-inv F
  0.083333 -0.416667 -0.250000    0.00057870  96 t-inv F
 -0.416667 -0.083333  0.250000    0.00057870  96 t-inv F
  0.416667  0.083333 -0.250000    0.00057870  96 t-inv F
  0.083333 -0.416667  0.250000    0.00057870  96 t-inv F
 -0.083333  0.416667 -0.250000    0.00057870  96 t-inv F
 -0.416667  0.083333 -0.250000    0.00057870  96 t-inv F
  0.416667 -0.083333  0.250000    0.00057870  96 t-inv F
  0.083333  0.416667 -0.250000    0.00057870  96 t-inv F
 -0.083333 -0.416667  0.250000    0.00057870  96 t-inv F
  0.416667 -0.083333 -0.250000    0.00057870  96 t-inv F
 -0.416667  0.083333  0.250000    0.00057870  96 t-inv F
 -0.083333 -0.416667 -0.250000    0.00057870  96 t-inv F
[...]
   59.992792    0.000024    0.000024    0.000008    0.000000    0.000000    0.000000
   60.318839    0.000023    0.000023    0.000008    0.000000    0.000000    0.000000
   60.644887    0.000022    0.000022    0.000007    0.000000    0.000000    0.000000
   60.970935    0.000022    0.000022    0.000007    0.000000    0.000000    0.000000
   61.296983    0.000021    0.000021    0.000007    0.000000    0.000000    0.000000
   61.623030    0.000020    0.000020    0.000007    0.000000    0.000000    0.000000
   61.949078    0.000019    0.000019    0.000007    0.000000    0.000000    0.000000
   62.275126    0.000019    0.000019    0.000006    0.000000    0.000000    0.000000
   62.601174    0.000018    0.000018    0.000006    0.000000    0.000000    0.000000
   62.927222    0.000017    0.000017    0.000006    0.000000    0.000000    0.000000
   63.253269    0.000017    0.000017    0.000006    0.000000    0.000000    0.000000
   63.579317    0.000016    0.000016    0.000006    0.000000    0.000000    0.000000
   63.905365    0.000016    0.000016    0.000005    0.000000    0.000000    0.000000
   64.231413    0.000015    0.000015    0.000005    0.000000    0.000000    0.000000
   64.557460    0.000014    0.000014    0.000005    0.000000    0.000000    0.000000
   64.883508    0.000014    0.000014    0.000005    0.000000    0.000000    0.000000

  frequency dependent      REAL DIELECTRIC FUNCTION (independent particle, no local field effects) current-current (2nd set in vasprun.xml)
     E(ev)        X           Y           Z          XY          YZ          ZX
  --------------------------------------------------------------------------------------------------------------
    0.000000    1.485077    1.485077    1.805716    0.000000    0.000000    0.000000
    0.326048    1.485394    1.485394    1.806397    0.000000    0.000000    0.000000
    0.652096    1.486356    1.486356    1.808470    0.000000    0.000000    0.000000
    0.978143    1.487969    1.487969    1.811950    0.000000    0.000000    0.000000
    1.304191    1.490249    1.490249    1.816876    0.000000    0.000000    0.000000
    1.630239    1.493218    1.493218    1.823304    0.000000    0.000000    0.000000
    1.956287    1.496906    1.496906    1.831309    0.000000    0.000000    0.000000
    2.282334    1.501348    1.501348    1.840988    0.000000    0.000000    0.000000
    2.608382    1.506594    1.506594    1.852461    0.000000    0.000000    0.000000
    2.934430    1.512698    1.512698    1.865878    0.000000    0.000000    0.000000
    3.260478    1.519732    1.519732    1.881420    0.000000    0.000000    0.000000
    3.586526    1.527781    1.527781    1.899313    0.000000    0.000000    0.000000
    3.912573    1.536945    1.536945    1.919830    0.000000    0.000000    0.000000
    4.238621    1.547352    1.547352    1.943309    0.000000    0.000000    0.000000
    4.564669    1.559153    1.559153    1.970166    0.000000    0.000000    0.000000
    4.890717    1.572535    1.572535    2.000921    0.000000    0.000000    0.000000
    5.216764    1.587731    1.587731    2.036227    0.000000    0.000000    0.000000
    5.542812    1.605034    1.605034    2.076914    0.000000    0.000000    0.000000
    5.868860    1.624812    1.624812    2.124055    0.000000    0.000000    0.000000
    6.194908    1.647545    1.647545    2.179061    0.000000    0.000000    0.000000
    6.520956    1.673863    1.673863    2.243820    0.000000    0.000000    0.000000
    6.847003    1.704614    1.704614    2.320928    0.000000    0.000000    0.000000
    7.173051    1.740974    1.740974    2.414053    0.000000    0.000000    0.000000
    7.499099    1.784632    1.784632    2.528573    0.000000    0.000000    0.000000
    7.825147    1.838124    1.838124    2.672731    0.000000    0.000000    0.000000
    8.151195    1.905491    1.905491    2.859915    0.000000    0.000000    0.000000
    8.477242    1.993720    1.993720    3.113638    0.000000    0.000000    0.000000
    8.803290    2.116410    2.116410    3.480044    0.000000    0.000000    0.000000
    9.129338    2.305681    2.305681    4.067007    0.000000    0.000000    0.000000
    9.455386    2.668041    2.668041    5.216448    0.000000    0.000000    0.000000
    9.781433    2.905440    2.905440    6.617639    0.000000    0.000000    0.000000
   10.107481    2.393748    2.393748    4.467032    0.000000    0.000000    0.000000
   10.433529    1.926268    1.926268    0.475117    0.000000    0.000000    0.000000
   10.759577    1.566580    1.566580   -1.155367    0.000000    0.000000    0.000000
   11.085625    2.052385    2.052385   -0.624370    0.000000    0.000000    0.000000
   11.411672    1.512334    1.512334   -1.520725    0.000000    0.000000    0.000000
   11.737720    0.794461    0.794461   -1.001136   -0.000000   -0.000000   -0.000000
   12.063768    0.549097    0.549097   -0.833921   -0.000000   -0.000000   -0.000000
   12.389816    0.879430    0.879430   -0.055027   -0.000000   -0.000000   -0.000000
   12.715863    0.876253    0.876253   -0.082372   -0.000000   -0.000000   -0.000000
   13.041911    0.716985    0.716985    0.087526   -0.000000   -0.000000   -0.000000
   13.367959    0.758177    0.758177   -0.001983   -0.000000   -0.000000   -0.000000
   13.694007    0.798374    0.798374    0.217061   -0.000000   -0.000000   -0.000000
   14.020055    0.713077    0.713077    0.055471   -0.000000   -0.000000   -0.000000
   14.346102    0.856458    0.856458    0.098140   -0.000000   -0.000000   -0.000000
   14.672150    0.729400    0.729400    0.209017   -0.000000   -0.000000   -0.000000
   14.998198    0.791737    0.791737    0.217114   -0.000000   -0.000000   -0.000000
   15.324246    0.624428    0.624428    0.178926   -0.000000   -0.000000   -0.000000
   15.650293    0.791473    0.791473    0.189405   -0.000000   -0.000000   -0.000000
   15.976341    0.771711    0.771711    0.437601   -0.000000   -0.000000   -0.000000
   16.302389    0.772987    0.772987    0.348092   -0.000000   -0.000000   -0.000000
   16.628437    0.668333    0.668333    0.379722   -0.000000   -0.000000   -0.000000
   16.954485    0.793724    0.793724    0.451594   -0.000000   -0.000000   -0.000000
   17.280532    0.662437    0.662437    0.437663   -0.000000   -0.000000   -0.000000
   17.606580    0.727275    0.727275    0.480966   -0.000000   -0.000000   -0.000000
   17.932628    0.733673    0.733673    0.480725   -0.000000   -0.000000   -0.000000
   18.258676    0.690112    0.690112    0.515070   -0.000000   -0.000000   -0.000000
   18.584723    0.719351    0.719351    0.498688   -0.000000   -0.000000   -0.000000
   18.910771    0.709473    0.709473    0.528825   -0.000000   -0.000000   -0.000000
   19.236819    0.685381    0.685381    0.527294   -0.000000   -0.000000   -0.000000
   19.562867    0.705258    0.705258    0.511117   -0.000000   -0.000000   -0.000000
   19.888915    0.634554    0.634554    0.494118   -0.000000   -0.000000   -0.000000
   20.214962    0.694940    0.694940    0.491274   -0.000000   -0.000000   -0.000000
   20.541010    0.728641    0.728641    0.547175   -0.000000   -0.000000   -0.000000
   20.867058    0.708121    0.708121    0.571707   -0.000000   -0.000000   -0.000000
   21.193106    0.722418    0.722418    0.579550   -0.000000   -0.000000   -0.000000
   21.519153    0.748714    0.748714    0.579889   -0.000000   -0.000000   -0.000000
   21.845201    0.696165    0.696165    0.603212   -0.000000   -0.000000   -0.000000
   22.171249    0.685153    0.685153    0.610408   -0.000000   -0.000000   -0.000000
   22.497297    0.758673    0.758673    0.640197   -0.000000   -0.000000   -0.000000
   22.823345    0.798557    0.798557    0.660842   -0.000000   -0.000000   -0.000000
   23.149392    0.770242    0.770242    0.686635   -0.000000   -0.000000   -0.000000
   23.475440    0.784792    0.784792    0.700557   -0.000000   -0.000000   -0.000000
   23.801488    0.751691    0.751691    0.719073   -0.000000   -0.000000   -0.000000
   24.127536    0.799115    0.799115    0.725462   -0.000000   -0.000000   -0.000000
   24.453584    0.751525    0.751525    0.721637   -0.000000   -0.000000   -0.000000
   24.779631    0.765193    0.765193    0.735840   -0.000000   -0.000000   -0.000000
   25.105679    0.796181    0.796181    0.743723   -0.000000   -0.000000   -0.000000
   25.431727    0.783226    0.783226    0.761154   -0.000000   -0.000000   -0.000000
   25.757775    0.740012    0.740012    0.751149   -0.000000   -0.000000   -0.000000
   26.083822    0.792719    0.792719    0.766598   -0.000000   -0.000000   -0.000000
   26.409870    0.793117    0.793117    0.778517   -0.000000   -0.000000   -0.000000
   26.735918    0.801534    0.801534    0.786472   -0.000000   -0.000000   -0.000000
   27.061966    0.806241    0.806241    0.782065   -0.000000   -0.000000   -0.000000
   27.388014    0.808956    0.808956    0.797604   -0.000000   -0.000000   -0.000000
   27.714061    0.811633    0.811633    0.802590   -0.000000   -0.000000   -0.000000
   28.040109    0.819105    0.819105    0.809106   -0.000000   -0.000000   -0.000000
   28.366157    0.826779    0.826779    0.813798   -0.000000   -0.000000   -0.000000
   28.692205    0.817972    0.817972    0.817292   -0.000000   -0.000000   -0.000000
   29.018252    0.830157    0.830157    0.818269   -0.000000   -0.000000   -0.000000
   29.344300    0.838812    0.838812    0.825986   -0.000000   -0.000000   -0.000000
   29.670348    0.844547    0.844547    0.831922   -0.000000   -0.000000   -0.000000
   29.996396    0.851521    0.851521    0.831464   -0.000000   -0.000000   -0.000000
   30.322444    0.844996    0.844996    0.837437   -0.000000   -0.000000   -0.000000
   30.648491    0.852898    0.852898    0.842300   -0.000000   -0.000000   -0.000000
   30.974539    0.846123    0.846123    0.845543   -0.000000   -0.000000   -0.000000
   31.300587    0.852909    0.852909    0.851774   -0.000000   -0.000000   -0.000000
   31.626635    0.855098    0.855098    0.853344   -0.000000   -0.000000   -0.000000
   31.952682    0.861160    0.861160    0.858175   -0.000000   -0.000000   -0.000000
   32.278730    0.865209    0.865209    0.861216   -0.000000   -0.000000   -0.000000
   32.604778    0.869724    0.869724    0.863802   -0.000000   -0.000000   -0.000000
   32.930826    0.869665    0.869665    0.868609   -0.000000   -0.000000   -0.000000
   33.256874    0.875653    0.875653    0.869728   -0.000000   -0.000000   -0.000000
   33.582921    0.872810    0.872810    0.873059   -0.000000   -0.000000   -0.000000
   33.908969    0.874728    0.874728    0.874648   -0.000000   -0.000000   -0.000000
   34.235017    0.886100    0.886100    0.880360   -0.000000   -0.000000   -0.000000
   34.561065    0.876218    0.876218    0.881273   -0.000000   -0.000000   -0.000000
   34.887112    0.876456    0.876456    0.883250   -0.000000   -0.000000   -0.000000
   35.213160    0.877345    0.877345    0.885442   -0.000000   -0.000000   -0.000000
   35.539208    0.888569    0.888569    0.889150   -0.000000   -0.000000   -0.000000
   35.865256    0.888114    0.888114    0.891187   -0.000000   -0.000000   -0.000000
   36.191304    0.890057    0.890057    0.893047   -0.000000   -0.000000   -0.000000
   36.517351    0.897809    0.897809    0.894897   -0.000000   -0.000000   -0.000000
   36.843399    0.898803    0.898803    0.896347   -0.000000   -0.000000   -0.000000
   37.169447    0.893209    0.893209    0.899321   -0.000000   -0.000000   -0.000000
   37.495495    0.888730    0.888730    0.902124   -0.000000   -0.000000   -0.000000
   37.821543    0.887485    0.887485    0.904175   -0.000000   -0.000000   -0.000000
   38.147590    0.892753    0.892753    0.906572   -0.000000   -0.000000   -0.000000
   38.473638    0.895957    0.895957    0.907352   -0.000000   -0.000000   -0.000000
   38.799686    0.906111    0.906111    0.909777   -0.000000   -0.000000   -0.000000
   39.125734    0.907460    0.907460    0.911102   -0.000000   -0.000000   -0.000000
   39.451781    0.902388    0.902388    0.912620   -0.000000   -0.000000   -0.000000
   39.777829    0.904280    0.904280    0.914381   -0.000000   -0.000000   -0.000000
   40.103877    0.910037    0.910037    0.916697   -0.000000   -0.000000   -0.000000
   40.429925    0.912858    0.912858    0.918186   -0.000000   -0.000000   -0.000000
   40.755973    0.912403    0.912403    0.919068   -0.000000   -0.000000   -0.000000
   41.082020    0.910451    0.910451    0.920708   -0.000000   -0.000000   -0.000000
   41.408068    0.914991    0.914991    0.922262   -0.000000   -0.000000   -0.000000
   41.734116    0.914738    0.914738    0.923888   -0.000000   -0.000000   -0.000000
   42.060164    0.916792    0.916792    0.925447   -0.000000   -0.000000   -0.000000
   42.386211    0.913316    0.913316    0.926580   -0.000000   -0.000000   -0.000000
   42.712259    0.917435    0.917435    0.927578   -0.000000   -0.000000   -0.000000
   43.038307    0.918001    0.918001    0.928555   -0.000000   -0.000000   -0.000000
   43.364355    0.918984    0.918984    0.930017   -0.000000   -0.000000   -0.000000
   43.690403    0.923681    0.923681    0.931237   -0.000000   -0.000000   -0.000000
   44.016450    0.927991    0.927991    0.932105   -0.000000   -0.000000   -0.000000
   44.342498    0.927383    0.927383    0.933091   -0.000000   -0.000000   -0.000000
   44.668546    0.921703    0.921703    0.934166   -0.000000   -0.000000   -0.000000
   44.994594    0.922295    0.922295    0.935238   -0.000000   -0.000000   -0.000000
   45.320641    0.927792    0.927792    0.936477   -0.000000   -0.000000   -0.000000
   45.646689    0.926934    0.926934    0.937502   -0.000000   -0.000000   -0.000000
   45.972737    0.926925    0.926925    0.938395   -0.000000   -0.000000   -0.000000
   46.298785    0.926998    0.926998    0.939430   -0.000000   -0.000000   -0.000000
   46.624833    0.927125    0.927125    0.940113   -0.000000   -0.000000   -0.000000
   46.950880    0.929346    0.929346    0.941100   -0.000000   -0.000000   -0.000000
   47.276928    0.928939    0.928939    0.942095   -0.000000   -0.000000   -0.000000
   47.602976    0.930080    0.930080    0.942897   -0.000000   -0.000000   -0.000000
   47.929024    0.932520    0.932520    0.943845   -0.000000   -0.000000   -0.000000
   48.255071    0.933356    0.933356    0.944567   -0.000000   -0.000000   -0.000000
   48.581119    0.932817    0.932817    0.945444   -0.000000   -0.000000   -0.000000
   48.907167    0.935661    0.935661    0.946309   -0.000000   -0.000000   -0.000000
   49.233215    0.936929    0.936929    0.947186   -0.000000   -0.000000   -0.000000
   49.559263    0.938930    0.938930    0.947982   -0.000000   -0.000000   -0.000000
   49.885310    0.940740    0.940740    0.948780   -0.000000   -0.000000   -0.000000
   50.211358    0.942147    0.942147    0.949515   -0.000000   -0.000000   -0.000000
   50.537406    0.943501    0.943501    0.950261   -0.000000   -0.000000   -0.000000
   50.863454    0.944732    0.944732    0.950984   -0.000000   -0.000000   -0.000000
   51.189502    0.945877    0.945877    0.951685   -0.000000   -0.000000   -0.000000
   51.515549    0.946957    0.946957    0.952369   -0.000000   -0.000000   -0.000000
   51.841597    0.947999    0.947999    0.953035   -0.000000   -0.000000   -0.000000
   52.167645    0.948899    0.948899    0.953686   -0.000000   -0.000000   -0.000000
   52.493693    0.949792    0.949792    0.954322   -0.000000   -0.000000   -0.000000
   52.819740    0.950682    0.950682    0.954944   -0.000000   -0.000000   -0.000000
   53.145788    0.951544    0.951544    0.955552   -0.000000   -0.000000   -0.000000
   53.471836    0.952367    0.952367    0.956146   -0.000000   -0.000000   -0.000000
   53.797884    0.953158    0.953158    0.956728   -0.000000   -0.000000   -0.000000
   54.123932    0.953922    0.953922    0.957297   -0.000000   -0.000000   -0.000000
   54.449979    0.954661    0.954661    0.957855   -0.000000   -0.000000   -0.000000
   54.776027    0.955376    0.955376    0.958401   -0.000000   -0.000000   -0.000000
   55.102075    0.956069    0.956069    0.958935   -0.000000   -0.000000   -0.000000
   55.428123    0.956741    0.956741    0.959459   -0.000000   -0.000000   -0.000000
   55.754170    0.957394    0.957394    0.959973   -0.000000   -0.000000   -0.000000
   56.080218    0.958029    0.958029    0.960476   -0.000000   -0.000000   -0.000000
   56.406266    0.958646    0.958646    0.960969   -0.000000   -0.000000   -0.000000
   56.732314    0.959247    0.959247    0.961453   -0.000000   -0.000000   -0.000000
   57.058362    0.959832    0.959832    0.961927   -0.000000   -0.000000   -0.000000
   57.384409    0.960402    0.960402    0.962393   -0.000000   -0.000000   -0.000000
   57.710457    0.960958    0.960958    0.962849   -0.000000   -0.000000   -0.000000
   58.036505    0.961500    0.961500    0.963297   -0.000000   -0.000000   -0.000000
   58.362553    0.962029    0.962029    0.963736   -0.000000   -0.000000   -0.000000
   58.688600    0.962546    0.962546    0.964167   -0.000000   -0.000000   -0.000000
   59.014648    0.963050    0.963050    0.964591   -0.000000   -0.000000   -0.000000
   59.340696    0.963542    0.963542    0.965006   -0.000000   -0.000000   -0.000000
   59.666744    0.964024    0.964024    0.965415   -0.000000   -0.000000   -0.000000
   59.992792    0.964494    0.964494    0.965815   -0.000000   -0.000000   -0.000000
   60.318839    0.964954    0.964954    0.966209   -0.000000   -0.000000   -0.000000
   60.644887    0.965405    0.965405    0.966596   -0.000000   -0.000000   -0.000000
   60.970935    0.965845    0.965845    0.966975   -0.000000   -0.000000   -0.000000
   61.296983    0.966276    0.966276    0.967349   -0.000000   -0.000000   -0.000000
   61.623030    0.966698    0.966698    0.967715   -0.000000   -0.000000   -0.000000
   61.949078    0.967111    0.967111    0.968076   -0.000000   -0.000000   -0.000000
   62.275126    0.967516    0.967516    0.968430   -0.000000   -0.000000   -0.000000
   62.601174    0.967913    0.967913    0.968778   -0.000000   -0.000000   -0.000000
   62.927222    0.968301    0.968301    0.969120   -0.000000   -0.000000   -0.000000
   63.253269    0.968682    0.968682    0.969457   -0.000000   -0.000000   -0.000000
   63.579317    0.969055    0.969055    0.969788   -0.000000   -0.000000   -0.000000
   63.905365    0.969422    0.969422    0.970113   -0.000000   -0.000000   -0.000000
   64.231413    0.969781    0.969781    0.970433   -0.000000   -0.000000   -0.000000
   64.557460    0.970133    0.970133    0.970748   -0.000000   -0.000000   -0.000000
   64.883508    0.970478    0.970478    0.971058   -0.000000   -0.000000   -0.000000

 The outermost node in the dielectric function lies at epsilon=  14.3


--------------------------------------------------------------------------------------------------------


    OPTICS:  cpu time  120.3407: real time   16.4034
    4ORBIT:  cpu time    0.0001: real time    0.0000

 total amount of memory used by VASP MPI-rank0    82145. kBytes
=======================================================================

   base      :      30000. kBytes
   nonl-proj :       3493. kBytes
   fftplans  :        904. kBytes
   grid      :       1382. kBytes
   one-center:          4. kBytes
   wavefun   :      46362. kBytes

  
  
 General timing and accounting informations for this job:
 ========================================================
  
                  Total CPU time used (sec):     3631.533
                            User time (sec):     1531.937
                          System time (sec):     2099.596
                         Elapsed time (sec):      494.063
  
                   Maximum memory used (kb):      787112.
                   Average memory used (kb):           0.
  
                          Minor page faults:      1545524
                          Major page faults:           12
                 Voluntary context switches:         1426
