<?xml version="1.0" encoding="ISO-8859-1"?>
<modeling>
 <generator>
  <i name="program" type="string">vasp </i>
  <i name="version" type="string">5.4.4.18Apr17-6-g9f103f2a35  </i>
  <i name="subversion" type="string">(build Sep 28 2022 22:23:22) complex            parallel </i>
  <i name="platform" type="string">LinuxGNU </i>
  <i name="date" type="string">2022 12 13 </i>
  <i name="time" type="string">21:04:54 </i>
 </generator>
 <incar>
  <i type="string" name="PREC">normal</i>
  <i type="string" name="ALGO"> Exact</i>
  <i name="ENCUT">    250.00000000</i>
  <i type="int" name="NBANDS">    32</i>
  <i type="int" name="NEDOS">  2000</i>
  <i type="int" name="ISMEAR">     0</i>
  <i name="SIGMA">      0.01000000</i>
  <i type="logical" name="LOPTICS"> T  </i>
  <i type="logical" name="LSCALAPACK"> F  </i>
  <v type="int" name="KPOINT_BSE">    -1     0     0     0</v>
  <i name="CSHIFT">      0.10000000</i>
  <i type="logical" name="LPEAD"> T  </i>
  <i type="string" name="GGA"> PE</i>
  <i name="CSHIFT">      0.10000000</i>
 </incar>
 <structure name="primitive_cell" >
  <crystal>
   <varray name="basis" >
    <v>      -1.69047100      -1.69047100       2.06027000 </v>
    <v>       1.69047100       1.69047100       2.06027000 </v>
    <v>      -1.69047100       1.69047100      -2.06027000 </v>
   </varray>
   <i name="volume">     23.55047005 </i>
   <varray name="rec_basis" >
    <v>      -0.29577556       0.00000000       0.24268664 </v>
    <v>      -0.00000000       0.29577556       0.24268664 </v>
    <v>      -0.29577556       0.29577556       0.00000000 </v>
   </varray>
  </crystal>
  <varray name="positions" >
   <v>      -0.09103500      -0.09103500       0.00000000 </v>
   <v>       0.09103500       0.09103500       0.00000000 </v>
  </varray>
 </structure>
 <varray name="primitive_index" >
  <v type="int" >        1 </v>
  <v type="int" >        2 </v>
 </varray>
 <kpoints>
  <generation param="Gamma">
   <v type="int" name="divisions">      12       12       12 </v>
   <v name="usershift">      0.00000000       0.00000000       0.00000000 </v>
   <v name="genvec1">      0.08333333      -0.00000000       0.00000000 </v>
   <v name="genvec2">      0.00000000       0.08333333       0.00000000 </v>
   <v name="genvec3">      0.00000000       0.00000000       0.08333333 </v>
   <v name="shift">      0.00000000       0.00000000       0.00000000 </v>
  </generation>
  <varray name="kpointlist" >
   <v>       0.00000000       0.00000000       0.00000000 </v>
   <v>       0.08333333       0.00000000       0.00000000 </v>
   <v>       0.16666667       0.00000000       0.00000000 </v>
   <v>       0.25000000       0.00000000       0.00000000 </v>
   <v>       0.33333333       0.00000000       0.00000000 </v>
   <v>       0.41666667       0.00000000       0.00000000 </v>
   <v>       0.50000000       0.00000000       0.00000000 </v>
   <v>       0.08333333       0.08333333       0.00000000 </v>
   <v>       0.16666667       0.08333333       0.00000000 </v>
   <v>       0.25000000       0.08333333       0.00000000 </v>
   <v>       0.33333333       0.08333333       0.00000000 </v>
   <v>       0.41666667       0.08333333       0.00000000 </v>
   <v>       0.50000000       0.08333333       0.00000000 </v>
   <v>       0.16666667       0.16666667       0.00000000 </v>
   <v>       0.25000000       0.16666667       0.00000000 </v>
   <v>       0.33333333       0.16666667       0.00000000 </v>
   <v>       0.41666667       0.16666667       0.00000000 </v>
   <v>       0.50000000       0.16666667       0.00000000 </v>
   <v>       0.25000000       0.25000000       0.00000000 </v>
   <v>       0.33333333       0.25000000       0.00000000 </v>
   <v>       0.41666667       0.25000000       0.00000000 </v>
   <v>       0.50000000       0.25000000       0.00000000 </v>
   <v>       0.33333333       0.33333333       0.00000000 </v>
   <v>       0.41666667       0.33333333       0.00000000 </v>
   <v>       0.50000000       0.33333333       0.00000000 </v>
   <v>       0.41666667       0.41666667       0.00000000 </v>
   <v>       0.50000000       0.41666667       0.00000000 </v>
   <v>       0.50000000       0.50000000       0.00000000 </v>
   <v>       0.00000000       0.00000000       0.08333333 </v>
   <v>       0.08333333       0.00000000       0.08333333 </v>
   <v>       0.16666667       0.00000000       0.08333333 </v>
   <v>       0.25000000       0.00000000       0.08333333 </v>
   <v>       0.33333333       0.00000000       0.08333333 </v>
   <v>       0.41666667       0.00000000       0.08333333 </v>
   <v>       0.50000000       0.00000000       0.08333333 </v>
   <v>       0.08333333       0.08333333       0.08333333 </v>
   <v>       0.16666667       0.08333333       0.08333333 </v>
   <v>       0.25000000       0.08333333       0.08333333 </v>
   <v>       0.33333333       0.08333333       0.08333333 </v>
   <v>       0.41666667       0.08333333       0.08333333 </v>
   <v>       0.50000000       0.08333333       0.08333333 </v>
   <v>       0.16666667       0.16666667       0.08333333 </v>
   <v>       0.25000000       0.16666667       0.08333333 </v>
   <v>       0.33333333       0.16666667       0.08333333 </v>
   <v>       0.41666667       0.16666667       0.08333333 </v>
   <v>       0.50000000       0.16666667       0.08333333 </v>
   <v>       0.25000000       0.25000000       0.08333333 </v>
   <v>       0.33333333       0.25000000       0.08333333 </v>
   <v>       0.41666667       0.25000000       0.08333333 </v>
   <v>       0.50000000       0.25000000       0.08333333 </v>
   <v>       0.33333333       0.33333333       0.08333333 </v>
   <v>       0.41666667       0.33333333       0.08333333 </v>
   <v>       0.50000000       0.33333333       0.08333333 </v>
   <v>       0.41666667       0.41666667       0.08333333 </v>
   <v>       0.50000000       0.41666667       0.08333333 </v>
   <v>       0.50000000       0.50000000       0.08333333 </v>
   <v>       0.00000000       0.00000000       0.16666667 </v>
   <v>       0.08333333       0.00000000       0.16666667 </v>
   <v>       0.16666667       0.00000000       0.16666667 </v>
   <v>       0.25000000       0.00000000       0.16666667 </v>
   <v>       0.33333333       0.00000000       0.16666667 </v>
   <v>       0.41666667       0.00000000       0.16666667 </v>
   <v>       0.50000000       0.00000000       0.16666667 </v>
   <v>       0.08333333       0.08333333       0.16666667 </v>
   <v>       0.16666667       0.08333333       0.16666667 </v>
   <v>       0.25000000       0.08333333       0.16666667 </v>
   <v>       0.33333333       0.08333333       0.16666667 </v>
   <v>       0.41666667       0.08333333       0.16666667 </v>
   <v>       0.50000000       0.08333333       0.16666667 </v>
   <v>       0.16666667       0.16666667       0.16666667 </v>
   <v>       0.25000000       0.16666667       0.16666667 </v>
   <v>       0.33333333       0.16666667       0.16666667 </v>
   <v>       0.41666667       0.16666667       0.16666667 </v>
   <v>       0.50000000       0.16666667       0.16666667 </v>
   <v>       0.25000000       0.25000000       0.16666667 </v>
   <v>       0.33333333       0.25000000       0.16666667 </v>
   <v>       0.41666667       0.25000000       0.16666667 </v>
   <v>       0.50000000       0.25000000       0.16666667 </v>
   <v>       0.33333333       0.33333333       0.16666667 </v>
   <v>       0.41666667       0.33333333       0.16666667 </v>
   <v>       0.50000000       0.33333333       0.16666667 </v>
   <v>       0.41666667       0.41666667       0.16666667 </v>
   <v>       0.50000000       0.41666667       0.16666667 </v>
   <v>       0.50000000       0.50000000       0.16666667 </v>
   <v>       0.00000000       0.00000000       0.25000000 </v>
   <v>       0.08333333       0.00000000       0.25000000 </v>
   <v>       0.16666667       0.00000000       0.25000000 </v>
   <v>       0.25000000       0.00000000       0.25000000 </v>
   <v>       0.33333333       0.00000000       0.25000000 </v>
   <v>       0.41666667       0.00000000       0.25000000 </v>
   <v>       0.50000000       0.00000000       0.25000000 </v>
   <v>       0.08333333       0.08333333       0.25000000 </v>
   <v>       0.16666667       0.08333333       0.25000000 </v>
   <v>       0.25000000       0.08333333       0.25000000 </v>
   <v>       0.33333333       0.08333333       0.25000000 </v>
   <v>       0.41666667       0.08333333       0.25000000 </v>
   <v>       0.50000000       0.08333333       0.25000000 </v>
   <v>       0.16666667       0.16666667       0.25000000 </v>
   <v>       0.25000000       0.16666667       0.25000000 </v>
   <v>       0.33333333       0.16666667       0.25000000 </v>
   <v>       0.41666667       0.16666667       0.25000000 </v>
   <v>       0.50000000       0.16666667       0.25000000 </v>
   <v>       0.25000000       0.25000000       0.25000000 </v>
   <v>       0.33333333       0.25000000       0.25000000 </v>
   <v>       0.41666667       0.25000000       0.25000000 </v>
   <v>       0.50000000       0.25000000       0.25000000 </v>
   <v>       0.33333333       0.33333333       0.25000000 </v>
   <v>       0.41666667       0.33333333       0.25000000 </v>
   <v>       0.50000000       0.33333333       0.25000000 </v>
   <v>       0.41666667       0.41666667       0.25000000 </v>
   <v>       0.50000000       0.41666667       0.25000000 </v>
   <v>       0.50000000       0.50000000       0.25000000 </v>
   <v>       0.00000000       0.00000000       0.33333333 </v>
   <v>       0.08333333       0.00000000       0.33333333 </v>
   <v>       0.16666667       0.00000000       0.33333333 </v>
   <v>       0.25000000       0.00000000       0.33333333 </v>
   <v>       0.33333333       0.00000000       0.33333333 </v>
   <v>       0.41666667       0.00000000       0.33333333 </v>
   <v>       0.50000000       0.00000000       0.33333333 </v>
   <v>       0.08333333       0.08333333       0.33333333 </v>
   <v>       0.16666667       0.08333333       0.33333333 </v>
   <v>       0.25000000       0.08333333       0.33333333 </v>
   <v>       0.33333333       0.08333333       0.33333333 </v>
   <v>       0.41666667       0.08333333       0.33333333 </v>
   <v>       0.50000000       0.08333333       0.33333333 </v>
   <v>       0.16666667       0.16666667       0.33333333 </v>
   <v>       0.25000000       0.16666667       0.33333333 </v>
   <v>       0.33333333       0.16666667       0.33333333 </v>
   <v>       0.41666667       0.16666667       0.33333333 </v>
   <v>       0.50000000       0.16666667       0.33333333 </v>
   <v>       0.25000000       0.25000000       0.33333333 </v>
   <v>       0.33333333       0.25000000       0.33333333 </v>
   <v>       0.41666667       0.25000000       0.33333333 </v>
   <v>       0.50000000       0.25000000       0.33333333 </v>
   <v>       0.33333333       0.33333333       0.33333333 </v>
   <v>       0.41666667       0.33333333       0.33333333 </v>
   <v>       0.50000000       0.33333333       0.33333333 </v>
   <v>       0.41666667       0.41666667       0.33333333 </v>
   <v>       0.50000000       0.41666667       0.33333333 </v>
   <v>       0.50000000       0.50000000       0.33333333 </v>
   <v>       0.00000000       0.00000000       0.41666667 </v>
   <v>       0.08333333       0.00000000       0.41666667 </v>
   <v>       0.16666667       0.00000000       0.41666667 </v>
   <v>       0.25000000       0.00000000       0.41666667 </v>
   <v>       0.33333333       0.00000000       0.41666667 </v>
   <v>       0.41666667       0.00000000       0.41666667 </v>
   <v>       0.50000000       0.00000000       0.41666667 </v>
   <v>       0.08333333       0.08333333       0.41666667 </v>
   <v>       0.16666667       0.08333333       0.41666667 </v>
   <v>       0.25000000       0.08333333       0.41666667 </v>
   <v>       0.33333333       0.08333333       0.41666667 </v>
   <v>       0.41666667       0.08333333       0.41666667 </v>
   <v>       0.50000000       0.08333333       0.41666667 </v>
   <v>       0.16666667       0.16666667       0.41666667 </v>
   <v>       0.25000000       0.16666667       0.41666667 </v>
   <v>       0.33333333       0.16666667       0.41666667 </v>
   <v>       0.41666667       0.16666667       0.41666667 </v>
   <v>       0.50000000       0.16666667       0.41666667 </v>
   <v>       0.25000000       0.25000000       0.41666667 </v>
   <v>       0.33333333       0.25000000       0.41666667 </v>
   <v>       0.41666667       0.25000000       0.41666667 </v>
   <v>       0.50000000       0.25000000       0.41666667 </v>
   <v>       0.33333333       0.33333333       0.41666667 </v>
   <v>       0.41666667       0.33333333       0.41666667 </v>
   <v>       0.50000000       0.33333333       0.41666667 </v>
   <v>       0.41666667       0.41666667       0.41666667 </v>
   <v>       0.50000000       0.41666667       0.41666667 </v>
   <v>       0.50000000       0.50000000       0.41666667 </v>
   <v>       0.00000000       0.00000000       0.50000000 </v>
   <v>       0.08333333       0.00000000       0.50000000 </v>
   <v>       0.16666667       0.00000000       0.50000000 </v>
   <v>       0.25000000       0.00000000       0.50000000 </v>
   <v>       0.33333333       0.00000000       0.50000000 </v>
   <v>       0.41666667       0.00000000       0.50000000 </v>
   <v>       0.50000000       0.00000000       0.50000000 </v>
   <v>       0.08333333       0.08333333       0.50000000 </v>
   <v>       0.16666667       0.08333333       0.50000000 </v>
   <v>       0.25000000       0.08333333       0.50000000 </v>
   <v>       0.33333333       0.08333333       0.50000000 </v>
   <v>       0.41666667       0.08333333       0.50000000 </v>
   <v>       0.50000000       0.08333333       0.50000000 </v>
   <v>       0.16666667       0.16666667       0.50000000 </v>
   <v>       0.25000000       0.16666667       0.50000000 </v>
   <v>       0.33333333       0.16666667       0.50000000 </v>
   <v>       0.41666667       0.16666667       0.50000000 </v>
   <v>       0.50000000       0.16666667       0.50000000 </v>
   <v>       0.25000000       0.25000000       0.50000000 </v>
   <v>       0.33333333       0.25000000       0.50000000 </v>
   <v>       0.41666667       0.25000000       0.50000000 </v>
   <v>       0.50000000       0.25000000       0.50000000 </v>
   <v>       0.33333333       0.33333333       0.50000000 </v>
   <v>       0.41666667       0.33333333       0.50000000 </v>
   <v>       0.50000000       0.33333333       0.50000000 </v>
   <v>       0.41666667       0.41666667       0.50000000 </v>
   <v>       0.50000000       0.41666667       0.50000000 </v>
   <v>       0.50000000       0.50000000       0.50000000 </v>
  </varray>
  <varray name="weights" >
   <v>       0.00057870 </v>
   <v>       0.00231481 </v>
   <v>       0.00231481 </v>
   <v>       0.00231481 </v>
   <v>       0.00231481 </v>
   <v>       0.00231481 </v>
   <v>       0.00115741 </v>
   <v>       0.00231481 </v>
   <v>       0.00462963 </v>
   <v>       0.00462963 </v>
   <v>       0.00462963 </v>
   <v>       0.00462963 </v>
   <v>       0.00231481 </v>
   <v>       0.00231481 </v>
   <v>       0.00462963 </v>
   <v>       0.00462963 </v>
   <v>       0.00462963 </v>
   <v>       0.00231481 </v>
   <v>       0.00231481 </v>
   <v>       0.00462963 </v>
   <v>       0.00462963 </v>
   <v>       0.00231481 </v>
   <v>       0.00231481 </v>
   <v>       0.00462963 </v>
   <v>       0.00231481 </v>
   <v>       0.00231481 </v>
   <v>       0.00231481 </v>
   <v>       0.00057870 </v>
   <v>       0.00115741 </v>
   <v>       0.00462963 </v>
   <v>       0.00462963 </v>
   <v>       0.00462963 </v>
   <v>       0.00462963 </v>
   <v>       0.00462963 </v>
   <v>       0.00231481 </v>
   <v>       0.00462963 </v>
   <v>       0.00925926 </v>
   <v>       0.00925926 </v>
   <v>       0.00925926 </v>
   <v>       0.00925926 </v>
   <v>       0.00462963 </v>
   <v>       0.00462963 </v>
   <v>       0.00925926 </v>
   <v>       0.00925926 </v>
   <v>       0.00925926 </v>
   <v>       0.00462963 </v>
   <v>       0.00462963 </v>
   <v>       0.00925926 </v>
   <v>       0.00925926 </v>
   <v>       0.00462963 </v>
   <v>       0.00462963 </v>
   <v>       0.00925926 </v>
   <v>       0.00462963 </v>
   <v>       0.00462963 </v>
   <v>       0.00462963 </v>
   <v>       0.00115741 </v>
   <v>       0.00115741 </v>
   <v>       0.00462963 </v>
   <v>       0.00462963 </v>
   <v>       0.00462963 </v>
   <v>       0.00462963 </v>
   <v>       0.00462963 </v>
   <v>       0.00231481 </v>
   <v>       0.00462963 </v>
   <v>       0.00925926 </v>
   <v>       0.00925926 </v>
   <v>       0.00925926 </v>
   <v>       0.00925926 </v>
   <v>       0.00462963 </v>
   <v>       0.00462963 </v>
   <v>       0.00925926 </v>
   <v>       0.00925926 </v>
   <v>       0.00925926 </v>
   <v>       0.00462963 </v>
   <v>       0.00462963 </v>
   <v>       0.00925926 </v>
   <v>       0.00925926 </v>
   <v>       0.00462963 </v>
   <v>       0.00462963 </v>
   <v>       0.00925926 </v>
   <v>       0.00462963 </v>
   <v>       0.00462963 </v>
   <v>       0.00462963 </v>
   <v>       0.00115741 </v>
   <v>       0.00115741 </v>
   <v>       0.00462963 </v>
   <v>       0.00462963 </v>
   <v>       0.00462963 </v>
   <v>       0.00462963 </v>
   <v>       0.00462963 </v>
   <v>       0.00231481 </v>
   <v>       0.00462963 </v>
   <v>       0.00925926 </v>
   <v>       0.00925926 </v>
   <v>       0.00925926 </v>
   <v>       0.00925926 </v>
   <v>       0.00462963 </v>
   <v>       0.00462963 </v>
   <v>       0.00925926 </v>
   <v>       0.00925926 </v>
   <v>       0.00925926 </v>
   <v>       0.00462963 </v>
   <v>       0.00462963 </v>
   <v>       0.00925926 </v>
   <v>       0.00925926 </v>
   <v>       0.00462963 </v>
   <v>       0.00462963 </v>
   <v>       0.00925926 </v>
   <v>       0.00462963 </v>
   <v>       0.00462963 </v>
   <v>       0.00462963 </v>
   <v>       0.00115741 </v>
   <v>       0.00115741 </v>
   <v>       0.00462963 </v>
   <v>       0.00462963 </v>
   <v>       0.00462963 </v>
   <v>       0.00462963 </v>
   <v>       0.00462963 </v>
   <v>       0.00231481 </v>
   <v>       0.00462963 </v>
   <v>       0.00925926 </v>
   <v>       0.00925926 </v>
   <v>       0.00925926 </v>
   <v>       0.00925926 </v>
   <v>       0.00462963 </v>
   <v>       0.00462963 </v>
   <v>       0.00925926 </v>
   <v>       0.00925926 </v>
   <v>       0.00925926 </v>
   <v>       0.00462963 </v>
   <v>       0.00462963 </v>
   <v>       0.00925926 </v>
   <v>       0.00925926 </v>
   <v>       0.00462963 </v>
   <v>       0.00462963 </v>
   <v>       0.00925926 </v>
   <v>       0.00462963 </v>
   <v>       0.00462963 </v>
   <v>       0.00462963 </v>
   <v>       0.00115741 </v>
   <v>       0.00115741 </v>
   <v>       0.00462963 </v>
   <v>       0.00462963 </v>
   <v>       0.00462963 </v>
   <v>       0.00462963 </v>
   <v>       0.00462963 </v>
   <v>       0.00231481 </v>
   <v>       0.00462963 </v>
   <v>       0.00925926 </v>
   <v>       0.00925926 </v>
   <v>       0.00925926 </v>
   <v>       0.00925926 </v>
   <v>       0.00462963 </v>
   <v>       0.00462963 </v>
   <v>       0.00925926 </v>
   <v>       0.00925926 </v>
   <v>       0.00925926 </v>
   <v>       0.00462963 </v>
   <v>       0.00462963 </v>
   <v>       0.00925926 </v>
   <v>       0.00925926 </v>
   <v>       0.00462963 </v>
   <v>       0.00462963 </v>
   <v>       0.00925926 </v>
   <v>       0.00462963 </v>
   <v>       0.00462963 </v>
   <v>       0.00462963 </v>
   <v>       0.00115741 </v>
   <v>       0.00057870 </v>
   <v>       0.00231481 </v>
   <v>       0.00231481 </v>
   <v>       0.00231481 </v>
   <v>       0.00231481 </v>
   <v>       0.00231481 </v>
   <v>       0.00115741 </v>
   <v>       0.00231481 </v>
   <v>       0.00462963 </v>
   <v>       0.00462963 </v>
   <v>       0.00462963 </v>
   <v>       0.00462963 </v>
   <v>       0.00231481 </v>
   <v>       0.00231481 </v>
   <v>       0.00462963 </v>
   <v>       0.00462963 </v>
   <v>       0.00462963 </v>
   <v>       0.00231481 </v>
   <v>       0.00231481 </v>
   <v>       0.00462963 </v>
   <v>       0.00462963 </v>
   <v>       0.00231481 </v>
   <v>       0.00231481 </v>
   <v>       0.00462963 </v>
   <v>       0.00231481 </v>
   <v>       0.00231481 </v>
   <v>       0.00231481 </v>
   <v>       0.00057870 </v>
  </varray>
 </kpoints>
 <parameters>
  <separator name="general" >
   <i type="string" name="SYSTEM">unknown system</i>
   <i type="logical" name="LCOMPAT"> F  </i>
  </separator>
  <separator name="electronic" >
   <i type="string" name="PREC">normal</i>
   <i name="ENMAX">    250.00000000</i>
   <i name="ENAUG">    400.00000000</i>
   <i name="EDIFF">      0.00010000</i>
   <i type="int" name="IALGO">    90</i>
   <i type="int" name="IWAVPR">    10</i>
   <i type="int" name="NBANDS">    32</i>
   <i name="NELECT">      4.00000000</i>
   <i type="int" name="TURBO">     0</i>
   <i type="int" name="IRESTART">     0</i>
   <i type="int" name="NREBOOT">     0</i>
   <i type="int" name="NMIN">     0</i>
   <i name="EREF">      0.00000000</i>
   <separator name="electronic smearing" >
    <i type="int" name="ISMEAR">     0</i>
    <i name="SIGMA">      0.01000000</i>
    <i name="KSPACING">      0.50000000</i>
    <i type="logical" name="KGAMMA"> T  </i>
   </separator>
   <separator name="electronic projectors" >
    <i type="logical" name="LREAL"> F  </i>
    <v name="ROPT">      0.00000000</v>
    <i type="int" name="LMAXPAW">  -100</i>
    <i type="int" name="LMAXMIX">     2</i>
    <i type="logical" name="NLSPLINE"> F  </i>
   </separator>
   <separator name="electronic startup" >
    <i type="int" name="ISTART">     0</i>
    <i type="int" name="ICHARG">     2</i>
    <i type="int" name="INIWAV">     1</i>
   </separator>
   <separator name="electronic spin" >
    <i type="int" name="ISPIN">     1</i>
    <i type="logical" name="LNONCOLLINEAR"> F  </i>
    <v name="MAGMOM">      1.00000000      1.00000000      1.00000000      1.00000000</v>
    <i name="NUPDOWN">     -1.00000000</i>
    <i type="logical" name="LSORBIT"> F  </i>
    <v name="SAXIS">      0.00000000      0.00000000      1.00000000</v>
    <i type="logical" name="LSPIRAL"> F  </i>
    <v name="QSPIRAL">      0.00000000      0.00000000      0.00000000</v>
    <i type="logical" name="LZEROZ"> F  </i>
   </separator>
   <separator name="electronic exchange-correlation" >
    <i type="logical" name="LASPH"> F  </i>
    <i type="logical" name="LMETAGGA"> F  </i>
   </separator>
   <separator name="electronic convergence" >
    <i type="int" name="NELM">    60</i>
    <i type="int" name="NELMDL">    -5</i>
    <i type="int" name="NELMIN">     2</i>
    <i name="ENINI">    250.00000000</i>
    <separator name="electronic convergence detail" >
     <i type="logical" name="LDIAG"> T  </i>
     <i type="logical" name="LSUBROT"> F  </i>
     <i name="WEIMIN">      0.00000000</i>
     <i name="EBREAK">      0.00000078</i>
     <i name="DEPER">      0.30000000</i>
     <i type="int" name="NRMM">     4</i>
     <i name="TIME">      0.40000000</i>
    </separator>
   </separator>
   <separator name="electronic mixer" >
    <i name="AMIX">      0.40000000</i>
    <i name="BMIX">      1.00000000</i>
    <i name="AMIN">      0.10000000</i>
    <i name="AMIX_MAG">      1.60000000</i>
    <i name="BMIX_MAG">      1.00000000</i>
    <separator name="electronic mixer details" >
     <i type="int" name="IMIX">     4</i>
     <i type="logical" name="MIXFIRST"> F  </i>
     <i type="int" name="MAXMIX">   -45</i>
     <i name="WC">    100.00000000</i>
     <i type="int" name="INIMIX">     1</i>
     <i type="int" name="MIXPRE">     1</i>
     <i type="int" name="MREMOVE">     5</i>
    </separator>
   </separator>
   <separator name="electronic dipolcorrection" >
    <i type="logical" name="LDIPOL"> F  </i>
    <i type="logical" name="LMONO"> F  </i>
    <i type="int" name="IDIPOL">     0</i>
    <i name="EPSILON">      1.00000000</i>
    <v name="DIPOL">   -100.00000000   -100.00000000   -100.00000000</v>
    <i name="EFIELD">      0.00000000</i>
   </separator>
  </separator>
  <separator name="grids" >
   <i type="int" name="NGX">    14</i>
   <i type="int" name="NGY">    14</i>
   <i type="int" name="NGZ">    16</i>
   <i type="int" name="NGXF">    28</i>
   <i type="int" name="NGYF">    28</i>
   <i type="int" name="NGZF">    32</i>
   <i type="logical" name="ADDGRID"> F  </i>
  </separator>
  <separator name="ionic" >
   <i type="int" name="NSW">     0</i>
   <i type="int" name="IBRION">    -1</i>
   <i type="int" name="MDALGO">     0</i>
   <i type="int" name="ISIF">     2</i>
   <i name="PSTRESS">      0.00000000</i>
   <i name="EDIFFG">      0.00100000</i>
   <i type="int" name="NFREE">     0</i>
   <i name="POTIM">      0.50000000</i>
   <i name="SMASS">     -3.00000000</i>
   <i name="SCALEE">      1.00000000</i>
  </separator>
  <separator name="ionic md" >
   <i name="TEBEG">      0.00010000</i>
   <i name="TEEND">      0.00010000</i>
   <i type="int" name="NBLOCK">     1</i>
   <i type="int" name="KBLOCK">     1</i>
   <i type="int" name="NPACO">   256</i>
   <i name="APACO">     16.00000000</i>
  </separator>
  <separator name="symmetry" >
   <i type="int" name="ISYM">     2</i>
   <i name="SYMPREC">      0.00001000</i>
  </separator>
  <separator name="dos" >
   <i type="int" name="LORBIT">     0</i>
   <v name="RWIGS">     -1.00000000</v>
   <i type="int" name="NEDOS">  2000</i>
   <i name="EMIN">     10.00000000</i>
   <i name="EMAX">    -10.00000000</i>
   <i name="EFERMI">      0.00000000</i>
  </separator>
  <separator name="writing" >
   <i type="int" name="NWRITE">     2</i>
   <i type="logical" name="LWAVE"> T  </i>
   <i type="logical" name="LDOWNSAMPLE"> F  </i>
   <i type="logical" name="LCHARG"> T  </i>
   <i type="logical" name="LPARD"> F  </i>
   <i type="logical" name="LVTOT"> F  </i>
   <i type="logical" name="LVHAR"> F  </i>
   <i type="logical" name="LELF"> F  </i>
   <i type="logical" name="LOPTICS"> T  </i>
   <v name="STM">      0.00000000      0.00000000      0.00000000      0.00000000      0.00000000      0.00000000      0.00000000</v>
  </separator>
  <separator name="performance" >
   <i type="int" name="NPAR">     1</i>
   <i type="int" name="NSIM">     4</i>
   <i type="int" name="NBLK">    -1</i>
   <i type="logical" name="LPLANE"> T  </i>
   <i type="logical" name="LSCALAPACK"> F  </i>
   <i type="logical" name="LSCAAWARE"> F  </i>
   <i type="logical" name="LSCALU"> F  </i>
   <i type="logical" name="LASYNC"> F  </i>
   <i type="logical" name="LORBITALREAL"> F  </i>
  </separator>
  <separator name="miscellaneous" >
   <i type="int" name="IDIOT">     3</i>
   <i type="int" name="ISPECIAL">     0</i>
   <i type="logical" name="LMUSIC"> F  </i>
   <v name="POMASS">      1.00000000</v>
   <v name="DARWINR">      0.00000000</v>
   <v name="DARWINV">      1.00000000</v>
   <i type="logical" name="LCORR"> T  </i>
  </separator>
  <i type="logical" name="GGA_COMPAT"> T  </i>
  <i type="logical" name="LBERRY"> F  </i>
  <i type="int" name="ICORELEVEL">     0</i>
  <i type="logical" name="LDAU"> F  </i>
  <i type="int" name="I_CONSTRAINED_M">     0</i>
  <separator name="electronic exchange-correlation" >
   <i type="string" name="GGA">PE</i>
   <i type="int" name="VOSKOWN">     0</i>
   <i type="logical" name="LHFCALC"> F  </i>
   <i type="string" name="PRECFOCK"></i>
   <i type="logical" name="LSYMGRAD"> F  </i>
   <i type="logical" name="LHFONE"> F  </i>
   <i type="logical" name="LRHFCALC"> F  </i>
   <i type="logical" name="LTHOMAS"> F  </i>
   <i type="logical" name="LMODELHF"> F  </i>
   <i name="ENCUT4O">     -1.00000000</i>
   <i type="int" name="EXXOEP">     0</i>
   <i type="int" name="FOURORBIT">     0</i>
   <i name="AEXX">      0.00000000</i>
   <i name="HFALPHA">      0.00000000</i>
   <i name="MCALPHA">      0.00000000</i>
   <i name="ALDAX">      1.00000000</i>
   <i name="AGGAX">      1.00000000</i>
   <i name="ALDAC">      1.00000000</i>
   <i name="AGGAC">      1.00000000</i>
   <i type="int" name="NKREDX">     1</i>
   <i type="int" name="NKREDY">     1</i>
   <i type="int" name="NKREDZ">     1</i>
   <i type="logical" name="SHIFTRED"> F  </i>
   <i type="logical" name="ODDONLY"> F  </i>
   <i type="logical" name="EVENONLY"> F  </i>
   <i type="int" name="LMAXFOCK">     0</i>
   <i type="int" name="NMAXFOCKAE">     0</i>
   <i type="logical" name="LFOCKAEDFT"> F  </i>
   <i name="HFSCREEN">      0.00000000</i>
   <i name="HFSCREENC">      0.00000000</i>
   <i type="int" name="NBANDSGWLOW">     0</i>
  </separator>
  <separator name="vdW DFT" >
   <i type="logical" name="LUSE_VDW"> F  </i>
   <i name="Zab_VDW">     -0.84910000</i>
   <i name="PARAM1">      0.12340000</i>
   <i name="PARAM2">      1.00000000</i>
   <i name="PARAM3">      0.00000000</i>
  </separator>
  <separator name="model GW" >
   <i type="int" name="MODEL_GW">     0</i>
   <i name="MODEL_EPS0">      7.06514102</i>
   <i name="MODEL_ALPHA">      1.00000000</i>
  </separator>
  <separator name="linear response parameters" >
   <i type="logical" name="LEPSILON"> F  </i>
   <i type="logical" name="LRPA"> F  </i>
   <i type="logical" name="LNABLA"> F  </i>
   <i type="logical" name="LVEL"> F  </i>
   <i type="int" name="KINTER">     0</i>
   <i name="CSHIFT">      0.10000000</i>
   <i name="OMEGAMAX">     -1.00000000</i>
   <i name="DEG_THRESHOLD">      0.00200000</i>
   <i name="RTIME">     -0.10000000</i>
   <i name="WPLASMAI">      0.00000000</i>
   <v name="DFIELD">      0.00000000      0.00000000      0.00000000</v>
   <v name="WPLASMA">      0.00000000      0.00000000      0.00000000      0.00000000      0.00000000      0.00000000      0.00000000      0.00000000      0.00000000</v>
  </separator>
  <separator name="orbital magnetization" >
   <i type="logical" name="NUCIND"> F  </i>
   <v name="MAGPOS">      0.00000000      0.00000000      0.00000000</v>
   <i type="logical" name="LNICSALL"> T  </i>
   <i type="logical" name="ORBITALMAG"> F  </i>
   <i type="logical" name="LMAGBLOCH"> F  </i>
   <i type="logical" name="LCHIMAG"> F  </i>
   <i type="logical" name="LGAUGE"> T  </i>
   <i type="int" name="MAGATOM">     0</i>
   <v name="MAGDIPOL">      0.00000000      0.00000000      0.00000000</v>
   <v name="AVECCONST">      0.00000000      0.00000000      0.00000000</v>
  </separator>
  <separator name="response functions" >
   <i type="logical" name="LADDER"> F  </i>
   <i type="logical" name="LRPAFORCE"> F  </i>
   <i type="logical" name="LFXC"> F  </i>
   <i type="logical" name="LHARTREE"> T  </i>
   <i type="int" name="IBSE">     0</i>
   <v type="int" name="KPOINT">    -1     0     0     0</v>
   <i type="logical" name="LTCTE"> F  </i>
   <i type="logical" name="LTETE"> F  </i>
   <i type="logical" name="LTRIPLET"> F  </i>
   <i type="logical" name="LFXCEPS"> F  </i>
   <i type="logical" name="LFXHEG"> F  </i>
   <i type="int" name="NATURALO">     2</i>
   <i type="logical" name="L2ORDER"> F  </i>
   <i type="logical" name="LMP2LT"> F  </i>
   <i type="logical" name="LUSEW"> F  </i>
   <i name="ENCUTGW">     -2.00000000</i>
   <i name="ENCUTGWSOFT">     -2.00000000</i>
   <i name="ENCUTLF">     -1.00000000</i>
   <i type="int" name="LMAXMP2">    -1</i>
   <i name="SCISSOR">      0.00000000</i>
   <i type="int" name="NOMEGA">     0</i>
   <i type="int" name="NOMEGAR">     0</i>
   <i type="int" name="NBANDSGW">    -1</i>
   <i type="int" name="NBANDSO">    -1</i>
   <i type="int" name="NBANDSV">    -1</i>
   <i type="int" name="NELM">     1</i>
   <i type="int" name="NELMHF">     1</i>
   <i type="int" name="DIM">     3</i>
   <i type="int" name="ANTIRES">     0</i>
   <i name="OMEGAMAX">    -30.00000000</i>
   <i name="OMEGAMIN">    -30.00000000</i>
   <i name="OMEGATL">   -200.00000000</i>
   <i type="int" name="OMEGAGRID">   140</i>
   <i name="CSHIFT">      0.10000000</i>
   <i type="logical" name="SELFENERGY"> F  </i>
   <i type="logical" name="LSPECTRAL"> F  </i>
   <i type="logical" name="LSPECTRALGW"> F  </i>
   <i type="logical" name="LSINGLES"> F  </i>
   <i type="logical" name="LFERMIGW"> F  </i>
   <i type="logical" name="ODDONLYGW"> F  </i>
   <i type="logical" name="EVENONLYGW"> F  </i>
   <i type="int" name="NKREDLFX">     1</i>
   <i type="int" name="NKREDLFY">     1</i>
   <i type="int" name="NKREDLFZ">     1</i>
   <i type="int" name="MAXMEM">  2800</i>
   <i type="int" name="TELESCOPE">     0</i>
   <i type="int" name="TAUPAR">     1</i>
   <i type="int" name="OMEGAPAR">    -1</i>
   <i name="LAMBDA">      1.00000000</i>
  </separator>
  <separator name="External order field" >
   <i name="OFIELD_KAPPA">      0.00000000</i>
   <v name="OFIELD_K">      0.00000000      0.00000000      0.00000000</v>
   <i name="OFIELD_Q6_NEAR">      0.00000000</i>
   <i name="OFIELD_Q6_FAR">      0.00000000</i>
   <i name="OFIELD_A">      0.00000000</i>
  </separator>
 </parameters>
 <atominfo>
  <atoms>       4 </atoms>
  <types>       1 </types>
  <array name="atoms" >
   <dimension dim="1">ion</dimension>
   <field type="string">element</field>
   <field type="int">atomtype</field>
   <set>
    <rc><c>H </c><c>   1</c></rc>
    <rc><c>H </c><c>   1</c></rc>
    <rc><c>H </c><c>   1</c></rc>
    <rc><c>H </c><c>   1</c></rc>
   </set>
  </array>
  <array name="atomtypes" >
   <dimension dim="1">type</dimension>
   <field type="int">atomspertype</field>
   <field type="string">element</field>
   <field>mass</field>
   <field>valence</field>
   <field type="string">pseudopotential</field>
   <set>
    <rc><c>   4</c><c>H </c><c>      1.00000000</c><c>      1.00000000</c><c>  PAW_PBE H 15Jun2001                   </c></rc>
   </set>
  </array>
 </atominfo>
 <structure name="initialpos" >
  <crystal>
   <varray name="basis" >
    <v>       3.38094200       0.00000000       0.00000000 </v>
    <v>       0.00000000       3.38094200       0.00000000 </v>
    <v>       0.00000000       0.00000000       4.12054000 </v>
   </varray>
   <i name="volume">     47.10094010 </i>
   <varray name="rec_basis" >
    <v>       0.29577556      -0.00000000       0.00000000 </v>
    <v>       0.00000000       0.29577556       0.00000000 </v>
    <v>      -0.00000000      -0.00000000       0.24268664 </v>
   </varray>
  </crystal>
  <varray name="positions" >
   <v>       0.00000000       0.00000000       0.90896500 </v>
   <v>       0.00000000       0.00000000       0.09103500 </v>
   <v>       0.50000000       0.50000000       0.40896500 </v>
   <v>       0.50000000       0.50000000       0.59103500 </v>
  </varray>
 </structure>
 <calculation>
  <scstep>
   <time name="diag">  365.33   49.93</time>
   <time name="total">  365.53   49.96</time>
   <energy>
    <i name="alphaZ">      0.82755631 </i>
    <i name="ewald">    -18.25053476 </i>
    <i name="hartreedc">    -10.81359912 </i>
    <i name="XCdc">      8.98937513 </i>
    <i name="pawpsdc">      8.53610974 </i>
    <i name="pawaedc">     -8.57162088 </i>
    <i name="eentropy">     -0.00000000 </i>
    <i name="bandstr">    -44.76098412 </i>
    <i name="atom">     49.60647330 </i>
    <i name="e_fr_energy">    -14.43722442 </i>
    <i name="e_wo_entrp">    -14.43722442 </i>
    <i name="e_0_energy">    -14.43722442 </i>
   </energy>
  </scstep>
  <scstep>
   <time name="diag">  370.83   51.27</time>
   <time name="total">  370.88   51.28</time>
   <energy>
    <i name="e_fr_energy">    -14.43722442 </i>
    <i name="e_wo_entrp">    -14.43722442 </i>
    <i name="e_0_energy">    -14.43722442 </i>
   </energy>
  </scstep>
  <scstep>
   <time name="diag">  363.98   49.86</time>
   <time name="total">  364.04   49.86</time>
   <energy>
    <i name="e_fr_energy">    -14.43722442 </i>
    <i name="e_wo_entrp">    -14.43722442 </i>
    <i name="e_0_energy">    -14.43722442 </i>
   </energy>
  </scstep>
  <scstep>
   <time name="diag">  358.24   48.69</time>
   <time name="total">  358.29   48.70</time>
   <energy>
    <i name="e_fr_energy">    -14.43722442 </i>
    <i name="e_wo_entrp">    -14.43722442 </i>
    <i name="e_0_energy">    -14.43722442 </i>
   </energy>
  </scstep>
  <scstep>
   <time name="diag">  339.67   45.27</time>
   <time name="total">  339.85   45.30</time>
   <energy>
    <i name="e_fr_energy">    -14.43722442 </i>
    <i name="e_wo_entrp">    -14.43722442 </i>
    <i name="e_0_energy">    -14.43722442 </i>
   </energy>
  </scstep>
  <scstep>
   <time name="diag">  336.94   45.12</time>
   <time name="total">  337.06   45.16</time>
   <energy>
    <i name="e_fr_energy">    -13.73862472 </i>
    <i name="e_wo_entrp">    -13.73862472 </i>
    <i name="e_0_energy">    -13.73862472 </i>
   </energy>
  </scstep>
  <scstep>
   <time name="diag">  348.24   46.97</time>
   <time name="total">  348.47   47.01</time>
   <energy>
    <i name="e_fr_energy">    -13.40645308 </i>
    <i name="e_wo_entrp">    -13.40645308 </i>
    <i name="e_0_energy">    -13.40645308 </i>
   </energy>
  </scstep>
  <scstep>
   <time name="diag">  339.74   46.23</time>
   <time name="total">  339.95   46.27</time>
   <energy>
    <i name="e_fr_energy">    -13.41351977 </i>
    <i name="e_wo_entrp">    -13.41351977 </i>
    <i name="e_0_energy">    -13.41351977 </i>
   </energy>
  </scstep>
  <scstep>
   <time name="diag">  333.44   44.73</time>
   <time name="total">  333.60   44.78</time>
   <energy>
    <i name="e_fr_energy">    -13.41207473 </i>
    <i name="e_wo_entrp">    -13.41207473 </i>
    <i name="e_0_energy">    -13.41207473 </i>
   </energy>
  </scstep>
  <scstep>
   <time name="diag">  350.40   47.27</time>
   <time name="total">  350.46   47.29</time>
   <energy>
    <i name="alphaZ">      0.82755631 </i>
    <i name="ewald">    -18.25053476 </i>
    <i name="hartreedc">    -20.30636014 </i>
    <i name="XCdc">     10.60190932 </i>
    <i name="pawpsdc">     62.05081625 </i>
    <i name="pawaedc">    -62.14106320 </i>
    <i name="eentropy">     -0.00000000 </i>
    <i name="bandstr">    -35.80090316 </i>
    <i name="atom">     49.60647330 </i>
    <i name="e_fr_energy">    -13.41210608 </i>
    <i name="e_wo_entrp">    -13.41210608 </i>
    <i name="e_0_energy">    -13.41210608 </i>
   </energy>
  </scstep>
  <structure>
   <crystal>
    <varray name="basis" >
     <v>       3.38094200       0.00000000       0.00000000 </v>
     <v>       0.00000000       3.38094200       0.00000000 </v>
     <v>       0.00000000       0.00000000       4.12054000 </v>
    </varray>
    <i name="volume">     47.10094010 </i>
    <varray name="rec_basis" >
     <v>       0.29577556      -0.00000000       0.00000000 </v>
     <v>       0.00000000       0.29577556       0.00000000 </v>
     <v>      -0.00000000      -0.00000000       0.24268664 </v>
    </varray>
   </crystal>
   <varray name="positions" >
    <v>       0.00000000       0.00000000       0.90896500 </v>
    <v>       0.00000000       0.00000000       0.09103500 </v>
    <v>       0.50000000       0.50000000       0.40896500 </v>
    <v>       0.50000000       0.50000000       0.59103500 </v>
   </varray>
  </structure>
  <varray name="forces" >
   <v>      -0.00000000       0.00000000       0.01486434 </v>
   <v>      -0.00000000      -0.00000000      -0.01486434 </v>
   <v>       0.00000000       0.00000000       0.01486434 </v>
   <v>       0.00000000      -0.00000000      -0.01486434 </v>
  </varray>
  <varray name="stress" >
   <v>     -33.56209284      -0.00000000      -0.00000000 </v>
   <v>      -0.00000000     -33.56209284      -0.00000000 </v>
   <v>      -0.00000000      -0.00000000     -27.85518401 </v>
  </varray>
  <energy>
   <i name="e_fr_energy">    -13.41210608 </i>
   <i name="e_wo_entrp">    -13.41210608 </i>
   <i name="e_0_energy">     -0.00000000 </i>
  </energy>
  <time name="totalsc"> 3509.21  476.58</time>
  <eigenvalues>
   <array>
    <dimension dim="1">band</dimension>
    <dimension dim="2">kpoint</dimension>
    <dimension dim="3">spin</dimension>
    <field>eigene</field>
    <field>occ</field>
    <set>
     <set comment="spin 1">
      <set comment="kpoint 1">
       <r>  -10.4690    1.0000 </r>
       <r>   -8.0488    1.0000 </r>
       <r>    1.9252    0.0000 </r>
       <r>    5.5218    0.0000 </r>
       <r>    7.3712    0.0000 </r>
       <r>    8.0030    0.0000 </r>
       <r>    8.0030    0.0000 </r>
       <r>    8.8686    0.0000 </r>
       <r>   10.2881    0.0000 </r>
       <r>   15.3888    0.0000 </r>
       <r>   15.3888    0.0000 </r>
       <r>   17.4372    0.0000 </r>
       <r>   17.4372    0.0000 </r>
       <r>   18.9133    0.0000 </r>
       <r>   19.3677    0.0000 </r>
       <r>   21.4806    0.0000 </r>
       <r>   22.0450    0.0000 </r>
       <r>   22.1881    0.0000 </r>
       <r>   22.1881    0.0000 </r>
       <r>   23.2856    0.0000 </r>
       <r>   24.3376    0.0000 </r>
       <r>   29.0264    0.0000 </r>
       <r>   29.2764    0.0000 </r>
       <r>   29.2764    0.0000 </r>
       <r>   29.7682    0.0000 </r>
       <r>   29.7682    0.0000 </r>
       <r>   30.0911    0.0000 </r>
       <r>   30.5516    0.0000 </r>
       <r>   31.2298    0.0000 </r>
       <r>   37.5888    0.0000 </r>
       <r>   39.6314    0.0000 </r>
       <r>   43.8451    0.0000 </r>
      </set>
      <set comment="kpoint 2">
       <r>  -10.4155    1.0000 </r>
       <r>   -8.0503    1.0000 </r>
       <r>    2.0068    0.0000 </r>
       <r>    5.3946    0.0000 </r>
       <r>    6.5390    0.0000 </r>
       <r>    8.0911    0.0000 </r>
       <r>    8.2599    0.0000 </r>
       <r>    8.6849    0.0000 </r>
       <r>   11.2258    0.0000 </r>
       <r>   15.1999    0.0000 </r>
       <r>   15.3223    0.0000 </r>
       <r>   16.8624    0.0000 </r>
       <r>   17.5272    0.0000 </r>
       <r>   19.1753    0.0000 </r>
       <r>   20.1634    0.0000 </r>
       <r>   20.3563    0.0000 </r>
       <r>   20.3608    0.0000 </r>
       <r>   22.8435    0.0000 </r>
       <r>   23.6927    0.0000 </r>
       <r>   24.0316    0.0000 </r>
       <r>   24.2151    0.0000 </r>
       <r>   27.7561    0.0000 </r>
       <r>   28.3044    0.0000 </r>
       <r>   29.1230    0.0000 </r>
       <r>   30.0767    0.0000 </r>
       <r>   30.1876    0.0000 </r>
       <r>   30.2439    0.0000 </r>
       <r>   32.2510    0.0000 </r>
       <r>   32.8663    0.0000 </r>
       <r>   37.4631    0.0000 </r>
       <r>   39.2117    0.0000 </r>
       <r>   42.0514    0.0000 </r>
      </set>
      <set comment="kpoint 3">
       <r>  -10.2617    1.0000 </r>
       <r>   -8.1218    1.0000 </r>
       <r>    2.2423    0.0000 </r>
       <r>    5.0444    0.0000 </r>
       <r>    5.3781    0.0000 </r>
       <r>    8.1871    0.0000 </r>
       <r>    8.3529    0.0000 </r>
       <r>    8.5819    0.0000 </r>
       <r>   13.1482    0.0000 </r>
       <r>   14.8468    0.0000 </r>
       <r>   15.0176    0.0000 </r>
       <r>   16.2316    0.0000 </r>
       <r>   17.7995    0.0000 </r>
       <r>   17.9811    0.0000 </r>
       <r>   19.1266    0.0000 </r>
       <r>   21.1159    0.0000 </r>
       <r>   21.7942    0.0000 </r>
       <r>   22.2184    0.0000 </r>
       <r>   22.3725    0.0000 </r>
       <r>   25.9160    0.0000 </r>
       <r>   26.3905    0.0000 </r>
       <r>   26.4645    0.0000 </r>
       <r>   26.5659    0.0000 </r>
       <r>   29.4314    0.0000 </r>
       <r>   30.4866    0.0000 </r>
       <r>   31.2611    0.0000 </r>
       <r>   31.7896    0.0000 </r>
       <r>   34.6192    0.0000 </r>
       <r>   35.2196    0.0000 </r>
       <r>   37.1841    0.0000 </r>
       <r>   38.1767    0.0000 </r>
       <r>   38.1799    0.0000 </r>
      </set>
      <set comment="kpoint 4">
       <r>  -10.0300    1.0000 </r>
       <r>   -8.2501    1.0000 </r>
       <r>    2.6361    0.0000 </r>
       <r>    4.4204    0.0000 </r>
       <r>    4.5569    0.0000 </r>
       <r>    7.4273    0.0000 </r>
       <r>    8.7873    0.0000 </r>
       <r>    9.0389    0.0000 </r>
       <r>   14.2910    0.0000 </r>
       <r>   14.3686    0.0000 </r>
       <r>   15.4575    0.0000 </r>
       <r>   16.0023    0.0000 </r>
       <r>   16.8390    0.0000 </r>
       <r>   18.2532    0.0000 </r>
       <r>   18.6429    0.0000 </r>
       <r>   20.5748    0.0000 </r>
       <r>   20.9760    0.0000 </r>
       <r>   23.0107    0.0000 </r>
       <r>   24.2294    0.0000 </r>
       <r>   24.3752    0.0000 </r>
       <r>   24.7640    0.0000 </r>
       <r>   28.8844    0.0000 </r>
       <r>   29.1337    0.0000 </r>
       <r>   29.9793    0.0000 </r>
       <r>   31.0324    0.0000 </r>
       <r>   32.0506    0.0000 </r>
       <r>   33.6219    0.0000 </r>
       <r>   34.3995    0.0000 </r>
       <r>   37.1212    0.0000 </r>
       <r>   37.1770    0.0000 </r>
       <r>   37.2016    0.0000 </r>
       <r>   37.7619    0.0000 </r>
      </set>
      <set comment="kpoint 5">
       <r>   -9.7399    1.0000 </r>
       <r>   -8.4420    1.0000 </r>
       <r>    3.1816    0.0000 </r>
       <r>    3.7653    0.0000 </r>
       <r>    4.0454    0.0000 </r>
       <r>    6.5129    0.0000 </r>
       <r>    9.3916    0.0000 </r>
       <r>    9.6587    0.0000 </r>
       <r>   13.2423    0.0000 </r>
       <r>   13.5179    0.0000 </r>
       <r>   16.1600    0.0000 </r>
       <r>   16.4828    0.0000 </r>
       <r>   17.9425    0.0000 </r>
       <r>   18.8206    0.0000 </r>
       <r>   18.8877    0.0000 </r>
       <r>   19.3792    0.0000 </r>
       <r>   19.7757    0.0000 </r>
       <r>   22.7243    0.0000 </r>
       <r>   23.2329    0.0000 </r>
       <r>   25.2615    0.0000 </r>
       <r>   26.6212    0.0000 </r>
       <r>   30.6957    0.0000 </r>
       <r>   30.8597    0.0000 </r>
       <r>   31.0568    0.0000 </r>
       <r>   31.9014    0.0000 </r>
       <r>   32.0149    0.0000 </r>
       <r>   32.3822    0.0000 </r>
       <r>   34.1111    0.0000 </r>
       <r>   37.2499    0.0000 </r>
       <r>   37.9965    0.0000 </r>
       <r>   38.3141    0.0000 </r>
       <r>   39.8736    0.0000 </r>
      </set>
      <set comment="kpoint 6">
       <r>   -9.3962    1.0000 </r>
       <r>   -8.7097    1.0000 </r>
       <r>    3.4331    0.0000 </r>
       <r>    3.6336    0.0000 </r>
       <r>    3.8643    0.0000 </r>
       <r>    5.5719    0.0000 </r>
       <r>   10.1597    0.0000 </r>
       <r>   10.4421    0.0000 </r>
       <r>   12.1255    0.0000 </r>
       <r>   12.4358    0.0000 </r>
       <r>   16.6341    0.0000 </r>
       <r>   16.7845    0.0000 </r>
       <r>   18.2883    0.0000 </r>
       <r>   18.3479    0.0000 </r>
       <r>   19.4178    0.0000 </r>
       <r>   19.7036    0.0000 </r>
       <r>   21.0442    0.0000 </r>
       <r>   21.4105    0.0000 </r>
       <r>   21.8778    0.0000 </r>
       <r>   27.0223    0.0000 </r>
       <r>   28.0707    0.0000 </r>
       <r>   28.6544    0.0000 </r>
       <r>   31.2880    0.0000 </r>
       <r>   32.2148    0.0000 </r>
       <r>   32.3258    0.0000 </r>
       <r>   32.7386    0.0000 </r>
       <r>   34.8591    0.0000 </r>
       <r>   34.9884    0.0000 </r>
       <r>   35.2405    0.0000 </r>
       <r>   37.5071    0.0000 </r>
       <r>   39.3777    0.0000 </r>
       <r>   39.4459    0.0000 </r>
      </set>
      <set comment="kpoint 7">
       <r>   -9.0447    1.0000 </r>
       <r>   -9.0447    1.0000 </r>
       <r>    3.4041    0.0000 </r>
       <r>    3.4041    0.0000 </r>
       <r>    4.6690    0.0000 </r>
       <r>    4.6690    0.0000 </r>
       <r>   11.0782    0.0000 </r>
       <r>   11.0782    0.0000 </r>
       <r>   11.3777    0.0000 </r>
       <r>   11.3777    0.0000 </r>
       <r>   17.3565    0.0000 </r>
       <r>   17.3565    0.0000 </r>
       <r>   17.4576    0.0000 </r>
       <r>   17.4576    0.0000 </r>
       <r>   20.2989    0.0000 </r>
       <r>   20.2989    0.0000 </r>
       <r>   20.7001    0.0000 </r>
       <r>   20.7001    0.0000 </r>
       <r>   24.0122    0.0000 </r>
       <r>   24.0122    0.0000 </r>
       <r>   30.1811    0.0000 </r>
       <r>   30.1811    0.0000 </r>
       <r>   30.4591    0.0000 </r>
       <r>   30.4591    0.0000 </r>
       <r>   33.4389    0.0000 </r>
       <r>   33.4389    0.0000 </r>
       <r>   34.6030    0.0000 </r>
       <r>   34.6030    0.0000 </r>
       <r>   37.9970    0.0000 </r>
       <r>   37.9970    0.0000 </r>
       <r>   38.0124    0.0000 </r>
       <r>   38.0124    0.0000 </r>
      </set>
      <set comment="kpoint 8">
       <r>  -10.3638    1.0000 </r>
       <r>   -8.0817    1.0000 </r>
       <r>    2.0827    0.0000 </r>
       <r>    5.2759    0.0000 </r>
       <r>    6.5231    0.0000 </r>
       <r>    6.8654    0.0000 </r>
       <r>    8.5409    0.0000 </r>
       <r>    9.3858    0.0000 </r>
       <r>   11.7858    0.0000 </r>
       <r>   14.6688    0.0000 </r>
       <r>   15.6595    0.0000 </r>
       <r>   16.1891    0.0000 </r>
       <r>   18.0647    0.0000 </r>
       <r>   18.3548    0.0000 </r>
       <r>   19.6743    0.0000 </r>
       <r>   20.9801    0.0000 </r>
       <r>   22.0701    0.0000 </r>
       <r>   22.3181    0.0000 </r>
       <r>   22.6883    0.0000 </r>
       <r>   22.9408    0.0000 </r>
       <r>   26.2112    0.0000 </r>
       <r>   28.1129    0.0000 </r>
       <r>   28.2240    0.0000 </r>
       <r>   29.2223    0.0000 </r>
       <r>   29.4479    0.0000 </r>
       <r>   29.9373    0.0000 </r>
       <r>   30.2862    0.0000 </r>
       <r>   33.5749    0.0000 </r>
       <r>   33.8969    0.0000 </r>
       <r>   37.4553    0.0000 </r>
       <r>   38.9531    0.0000 </r>
       <r>   41.5965    0.0000 </r>
      </set>
      <set comment="kpoint 9">
       <r>  -10.2193    1.0000 </r>
       <r>   -8.1369    1.0000 </r>
       <r>    2.3195    0.0000 </r>
       <r>    4.9396    0.0000 </r>
       <r>    5.4472    0.0000 </r>
       <r>    6.9419    0.0000 </r>
       <r>    8.1025    0.0000 </r>
       <r>   10.1026    0.0000 </r>
       <r>   13.4087    0.0000 </r>
       <r>   14.0845    0.0000 </r>
       <r>   15.4464    0.0000 </r>
       <r>   15.5176    0.0000 </r>
       <r>   17.1778    0.0000 </r>
       <r>   18.6015    0.0000 </r>
       <r>   20.1350    0.0000 </r>
       <r>   21.1787    0.0000 </r>
       <r>   21.5319    0.0000 </r>
       <r>   21.6977    0.0000 </r>
       <r>   22.5549    0.0000 </r>
       <r>   24.7932    0.0000 </r>
       <r>   26.8447    0.0000 </r>
       <r>   27.0140    0.0000 </r>
       <r>   28.5329    0.0000 </r>
       <r>   29.5291    0.0000 </r>
       <r>   30.5965    0.0000 </r>
       <r>   30.7896    0.0000 </r>
       <r>   30.8534    0.0000 </r>
       <r>   35.4590    0.0000 </r>
       <r>   35.7137    0.0000 </r>
       <r>   37.7239    0.0000 </r>
       <r>   38.2037    0.0000 </r>
       <r>   38.2289    0.0000 </r>
      </set>
      <set comment="kpoint 10">
       <r>   -9.9883    1.0000 </r>
       <r>   -8.2560    1.0000 </r>
       <r>    2.7119    0.0000 </r>
       <r>    4.4573    0.0000 </r>
       <r>    4.4755    0.0000 </r>
       <r>    7.3785    0.0000 </r>
       <r>    7.4006    0.0000 </r>
       <r>   10.6753    0.0000 </r>
       <r>   13.2539    0.0000 </r>
       <r>   14.9347    0.0000 </r>
       <r>   15.2465    0.0000 </r>
       <r>   15.6192    0.0000 </r>
       <r>   16.4454    0.0000 </r>
       <r>   19.1459    0.0000 </r>
       <r>   19.8204    0.0000 </r>
       <r>   19.8872    0.0000 </r>
       <r>   20.0862    0.0000 </r>
       <r>   23.1528    0.0000 </r>
       <r>   24.6045    0.0000 </r>
       <r>   25.2612    0.0000 </r>
       <r>   25.4992    0.0000 </r>
       <r>   27.3382    0.0000 </r>
       <r>   30.0707    0.0000 </r>
       <r>   30.7402    0.0000 </r>
       <r>   31.4274    0.0000 </r>
       <r>   31.8134    0.0000 </r>
       <r>   32.8527    0.0000 </r>
       <r>   34.4830    0.0000 </r>
       <r>   36.2817    0.0000 </r>
       <r>   36.7162    0.0000 </r>
       <r>   38.5580    0.0000 </r>
       <r>   39.1782    0.0000 </r>
      </set>
      <set comment="kpoint 11">
       <r>   -9.6909    1.0000 </r>
       <r>   -8.4449    1.0000 </r>
       <r>    3.2528    0.0000 </r>
       <r>    3.7798    0.0000 </r>
       <r>    3.9928    0.0000 </r>
       <r>    6.5381    0.0000 </r>
       <r>    7.9962    0.0000 </r>
       <r>   11.3250    0.0000 </r>
       <r>   12.0711    0.0000 </r>
       <r>   14.6617    0.0000 </r>
       <r>   15.3790    0.0000 </r>
       <r>   15.7987    0.0000 </r>
       <r>   17.9586    0.0000 </r>
       <r>   18.6389    0.0000 </r>
       <r>   18.9562    0.0000 </r>
       <r>   19.8108    0.0000 </r>
       <r>   19.9479    0.0000 </r>
       <r>   23.8017    0.0000 </r>
       <r>   24.0572    0.0000 </r>
       <r>   25.3001    0.0000 </r>
       <r>   26.8090    0.0000 </r>
       <r>   29.9847    0.0000 </r>
       <r>   30.8266    0.0000 </r>
       <r>   30.9464    0.0000 </r>
       <r>   31.7541    0.0000 </r>
       <r>   32.0032    0.0000 </r>
       <r>   33.9485    0.0000 </r>
       <r>   34.0083    0.0000 </r>
       <r>   36.6222    0.0000 </r>
       <r>   37.2232    0.0000 </r>
       <r>   37.9676    0.0000 </r>
       <r>   40.9251    0.0000 </r>
      </set>
      <set comment="kpoint 12">
       <r>   -9.3558    1.0000 </r>
       <r>   -8.7021    1.0000 </r>
       <r>    3.4282    0.0000 </r>
       <r>    3.5970    0.0000 </r>
       <r>    3.9298    0.0000 </r>
       <r>    5.6191    0.0000 </r>
       <r>    8.7879    0.0000 </r>
       <r>   10.8544    0.0000 </r>
       <r>   12.1010    0.0000 </r>
       <r>   13.9506    0.0000 </r>
       <r>   15.8441    0.0000 </r>
       <r>   15.8839    0.0000 </r>
       <r>   17.4656    0.0000 </r>
       <r>   17.5168    0.0000 </r>
       <r>   20.5217    0.0000 </r>
       <r>   20.6276    0.0000 </r>
       <r>   21.0535    0.0000 </r>
       <r>   22.5467    0.0000 </r>
       <r>   22.7532    0.0000 </r>
       <r>   27.1002    0.0000 </r>
       <r>   28.0884    0.0000 </r>
       <r>   28.8185    0.0000 </r>
       <r>   31.3742    0.0000 </r>
       <r>   32.0800    0.0000 </r>
       <r>   32.4039    0.0000 </r>
       <r>   32.7539    0.0000 </r>
       <r>   33.4930    0.0000 </r>
       <r>   35.1581    0.0000 </r>
       <r>   36.9155    0.0000 </r>
       <r>   37.5668    0.0000 </r>
       <r>   38.5033    0.0000 </r>
       <r>   38.7212    0.0000 </r>
      </set>
      <set comment="kpoint 13">
       <r>   -9.0143    1.0000 </r>
       <r>   -9.0143    1.0000 </r>
       <r>    3.3839    0.0000 </r>
       <r>    3.3839    0.0000 </r>
       <r>    4.7336    0.0000 </r>
       <r>    4.7336    0.0000 </r>
       <r>    9.7459    0.0000 </r>
       <r>    9.7459    0.0000 </r>
       <r>   12.9977    0.0000 </r>
       <r>   12.9977    0.0000 </r>
       <r>   16.5392    0.0000 </r>
       <r>   16.5392    0.0000 </r>
       <r>   16.5741    0.0000 </r>
       <r>   16.5741    0.0000 </r>
       <r>   21.3764    0.0000 </r>
       <r>   21.3764    0.0000 </r>
       <r>   21.6093    0.0000 </r>
       <r>   21.6093    0.0000 </r>
       <r>   24.1232    0.0000 </r>
       <r>   24.1232    0.0000 </r>
       <r>   30.3188    0.0000 </r>
       <r>   30.3188    0.0000 </r>
       <r>   30.4566    0.0000 </r>
       <r>   30.4566    0.0000 </r>
       <r>   33.4070    0.0000 </r>
       <r>   33.4070    0.0000 </r>
       <r>   34.6824    0.0000 </r>
       <r>   34.6824    0.0000 </r>
       <r>   36.4255    0.0000 </r>
       <r>   36.4255    0.0000 </r>
       <r>   39.9043    0.0000 </r>
       <r>   39.9043    0.0000 </r>
      </set>
      <set comment="kpoint 14">
       <r>  -10.0797    1.0000 </r>
       <r>   -8.2064    1.0000 </r>
       <r>    2.5503    0.0000 </r>
       <r>    4.6544    0.0000 </r>
       <r>    5.3618    0.0000 </r>
       <r>    5.9744    0.0000 </r>
       <r>    7.8123    0.0000 </r>
       <r>   11.5124    0.0000 </r>
       <r>   13.4365    0.0000 </r>
       <r>   14.3689    0.0000 </r>
       <r>   14.3945    0.0000 </r>
       <r>   14.6422    0.0000 </r>
       <r>   17.4992    0.0000 </r>
       <r>   19.6991    0.0000 </r>
       <r>   19.9085    0.0000 </r>
       <r>   20.0359    0.0000 </r>
       <r>   20.9018    0.0000 </r>
       <r>   22.9767    0.0000 </r>
       <r>   23.6211    0.0000 </r>
       <r>   24.3142    0.0000 </r>
       <r>   27.5659    0.0000 </r>
       <r>   28.0511    0.0000 </r>
       <r>   29.8236    0.0000 </r>
       <r>   29.9575    0.0000 </r>
       <r>   30.4400    0.0000 </r>
       <r>   30.5449    0.0000 </r>
       <r>   31.1946    0.0000 </r>
       <r>   35.6389    0.0000 </r>
       <r>   37.0628    0.0000 </r>
       <r>   37.9277    0.0000 </r>
       <r>   38.6665    0.0000 </r>
       <r>   39.2515    0.0000 </r>
      </set>
      <set comment="kpoint 15">
       <r>   -9.8586    1.0000 </r>
       <r>   -8.2887    1.0000 </r>
       <r>    2.9378    0.0000 </r>
       <r>    4.2483    0.0000 </r>
       <r>    4.4712    0.0000 </r>
       <r>    6.2763    0.0000 </r>
       <r>    7.2972    0.0000 </r>
       <r>   12.4820    0.0000 </r>
       <r>   12.4921    0.0000 </r>
       <r>   13.5867    0.0000 </r>
       <r>   14.1625    0.0000 </r>
       <r>   16.1812    0.0000 </r>
       <r>   17.6745    0.0000 </r>
       <r>   18.5457    0.0000 </r>
       <r>   18.5723    0.0000 </r>
       <r>   20.6060    0.0000 </r>
       <r>   21.3114    0.0000 </r>
       <r>   23.6675    0.0000 </r>
       <r>   25.3475    0.0000 </r>
       <r>   26.3627    0.0000 </r>
       <r>   26.8391    0.0000 </r>
       <r>   27.1264    0.0000 </r>
       <r>   30.3519    0.0000 </r>
       <r>   31.2460    0.0000 </r>
       <r>   31.2967    0.0000 </r>
       <r>   31.4798    0.0000 </r>
       <r>   33.4661    0.0000 </r>
       <r>   34.7475    0.0000 </r>
       <r>   35.7023    0.0000 </r>
       <r>   36.6901    0.0000 </r>
       <r>   39.0993    0.0000 </r>
       <r>   40.1046    0.0000 </r>
      </set>
      <set comment="kpoint 16">
       <r>   -9.5775    1.0000 </r>
       <r>   -8.4387    1.0000 </r>
       <r>    3.4707    0.0000 </r>
       <r>    3.7698    0.0000 </r>
       <r>    3.8176    0.0000 </r>
       <r>    6.5702    0.0000 </r>
       <r>    6.8863    0.0000 </r>
       <r>   11.1118    0.0000 </r>
       <r>   13.2634    0.0000 </r>
       <r>   13.6451    0.0000 </r>
       <r>   14.1406    0.0000 </r>
       <r>   17.1173    0.0000 </r>
       <r>   17.1297    0.0000 </r>
       <r>   17.2638    0.0000 </r>
       <r>   18.6881    0.0000 </r>
       <r>   21.4377    0.0000 </r>
       <r>   21.7041    0.0000 </r>
       <r>   25.3897    0.0000 </r>
       <r>   25.6370    0.0000 </r>
       <r>   25.7533    0.0000 </r>
       <r>   27.4059    0.0000 </r>
       <r>   28.9637    0.0000 </r>
       <r>   31.0731    0.0000 </r>
       <r>   31.1972    0.0000 </r>
       <r>   31.9659    0.0000 </r>
       <r>   32.0002    0.0000 </r>
       <r>   33.2613    0.0000 </r>
       <r>   35.9848    0.0000 </r>
       <r>   36.2076    0.0000 </r>
       <r>   36.2768    0.0000 </r>
       <r>   37.3795    0.0000 </r>
       <r>   39.5686    0.0000 </r>
      </set>
      <set comment="kpoint 17">
       <r>   -9.2632    1.0000 </r>
       <r>   -8.6631    1.0000 </r>
       <r>    3.3823    0.0000 </r>
       <r>    3.4678    0.0000 </r>
       <r>    4.1349    0.0000 </r>
       <r>    5.7392    0.0000 </r>
       <r>    7.6856    0.0000 </r>
       <r>    9.8105    0.0000 </r>
       <r>   14.0254    0.0000 </r>
       <r>   14.0493    0.0000 </r>
       <r>   14.5146    0.0000 </r>
       <r>   16.0606    0.0000 </r>
       <r>   16.1317    0.0000 </r>
       <r>   16.2350    0.0000 </r>
       <r>   21.3690    0.0000 </r>
       <r>   22.3248    0.0000 </r>
       <r>   22.3867    0.0000 </r>
       <r>   24.4299    0.0000 </r>
       <r>   24.4963    0.0000 </r>
       <r>   27.2986    0.0000 </r>
       <r>   28.1060    0.0000 </r>
       <r>   29.3359    0.0000 </r>
       <r>   31.5307    0.0000 </r>
       <r>   31.6574    0.0000 </r>
       <r>   32.6315    0.0000 </r>
       <r>   32.7239    0.0000 </r>
       <r>   33.1561    0.0000 </r>
       <r>   34.8843    0.0000 </r>
       <r>   37.0371    0.0000 </r>
       <r>   37.3108    0.0000 </r>
       <r>   38.0537    0.0000 </r>
       <r>   38.7796    0.0000 </r>
      </set>
      <set comment="kpoint 18">
       <r>   -8.9451    1.0000 </r>
       <r>   -8.9451    1.0000 </r>
       <r>    3.2978    0.0000 </r>
       <r>    3.2978    0.0000 </r>
       <r>    4.9049    0.0000 </r>
       <r>    4.9049    0.0000 </r>
       <r>    8.6629    0.0000 </r>
       <r>    8.6629    0.0000 </r>
       <r>   14.4749    0.0000 </r>
       <r>   14.4749    0.0000 </r>
       <r>   15.2004    0.0000 </r>
       <r>   15.2004    0.0000 </r>
       <r>   15.5615    0.0000 </r>
       <r>   15.5615    0.0000 </r>
       <r>   23.2337    0.0000 </r>
       <r>   23.2337    0.0000 </r>
       <r>   23.3181    0.0000 </r>
       <r>   23.3181    0.0000 </r>
       <r>   24.4964    0.0000 </r>
       <r>   24.4964    0.0000 </r>
       <r>   30.3591    0.0000 </r>
       <r>   30.3591    0.0000 </r>
       <r>   30.7411    0.0000 </r>
       <r>   30.7411    0.0000 </r>
       <r>   33.2863    0.0000 </r>
       <r>   33.2863    0.0000 </r>
       <r>   34.9117    0.0000 </r>
       <r>   34.9117    0.0000 </r>
       <r>   35.5292    0.0000 </r>
       <r>   35.5292    0.0000 </r>
       <r>   39.0088    0.0000 </r>
       <r>   39.0088    0.0000 </r>
      </set>
      <set comment="kpoint 19">
       <r>   -9.6549    1.0000 </r>
       <r>   -8.3524    1.0000 </r>
       <r>    3.3121    0.0000 </r>
       <r>    3.9115    0.0000 </r>
       <r>    4.1348    0.0000 </r>
       <r>    5.9788    0.0000 </r>
       <r>    7.0285    0.0000 </r>
       <r>   11.8327    0.0000 </r>
       <r>   12.3349    0.0000 </r>
       <r>   13.3965    0.0000 </r>
       <r>   14.0166    0.0000 </r>
       <r>   17.1270    0.0000 </r>
       <r>   17.1486    0.0000 </r>
       <r>   17.3932    0.0000 </r>
       <r>   18.8879    0.0000 </r>
       <r>   21.9363    0.0000 </r>
       <r>   22.0973    0.0000 </r>
       <r>   24.5509    0.0000 </r>
       <r>   26.6903    0.0000 </r>
       <r>   26.9148    0.0000 </r>
       <r>   27.5637    0.0000 </r>
       <r>   28.4911    0.0000 </r>
       <r>   30.7878    0.0000 </r>
       <r>   30.8356    0.0000 </r>
       <r>   31.2613    0.0000 </r>
       <r>   31.7236    0.0000 </r>
       <r>   34.4822    0.0000 </r>
       <r>   35.5206    0.0000 </r>
       <r>   35.8430    0.0000 </r>
       <r>   36.1656    0.0000 </r>
       <r>   36.5354    0.0000 </r>
       <r>   38.7107    0.0000 </r>
      </set>
      <set comment="kpoint 20">
       <r>   -9.4024    1.0000 </r>
       <r>   -8.4455    1.0000 </r>
       <r>    3.5403    0.0000 </r>
       <r>    3.5926    0.0000 </r>
       <r>    3.8245    0.0000 </r>
       <r>    6.3766    0.0000 </r>
       <r>    6.5557    0.0000 </r>
       <r>   10.4680    0.0000 </r>
       <r>   12.2964    0.0000 </r>
       <r>   13.1106    0.0000 </r>
       <r>   14.8288    0.0000 </r>
       <r>   15.8626    0.0000 </r>
       <r>   16.1434    0.0000 </r>
       <r>   19.0350    0.0000 </r>
       <r>   19.4054    0.0000 </r>
       <r>   22.9474    0.0000 </r>
       <r>   23.0572    0.0000 </r>
       <r>   25.7354    0.0000 </r>
       <r>   27.0942    0.0000 </r>
       <r>   27.7727    0.0000 </r>
       <r>   28.5094    0.0000 </r>
       <r>   28.9379    0.0000 </r>
       <r>   31.4698    0.0000 </r>
       <r>   31.6205    0.0000 </r>
       <r>   31.9701    0.0000 </r>
       <r>   32.2003    0.0000 </r>
       <r>   32.4447    0.0000 </r>
       <r>   35.6680    0.0000 </r>
       <r>   35.8551    0.0000 </r>
       <r>   35.8589    0.0000 </r>
       <r>   36.3844    0.0000 </r>
       <r>   38.8488    0.0000 </r>
      </set>
      <set comment="kpoint 21">
       <r>   -9.1197    1.0000 </r>
       <r>   -8.6205    1.0000 </r>
       <r>    3.2211    0.0000 </r>
       <r>    3.2418    0.0000 </r>
       <r>    4.4557    0.0000 </r>
       <r>    5.8991    0.0000 </r>
       <r>    7.1012    0.0000 </r>
       <r>    9.1727    0.0000 </r>
       <r>   12.6905    0.0000 </r>
       <r>   13.3009    0.0000 </r>
       <r>   14.2397    0.0000 </r>
       <r>   14.7536    0.0000 </r>
       <r>   16.5412    0.0000 </r>
       <r>   18.3319    0.0000 </r>
       <r>   21.9669    0.0000 </r>
       <r>   24.0780    0.0000 </r>
       <r>   24.0875    0.0000 </r>
       <r>   26.1333    0.0000 </r>
       <r>   26.5503    0.0000 </r>
       <r>   27.4997    0.0000 </r>
       <r>   28.2526    0.0000 </r>
       <r>   30.3031    0.0000 </r>
       <r>   31.3994    0.0000 </r>
       <r>   32.1484    0.0000 </r>
       <r>   32.4004    0.0000 </r>
       <r>   32.9932    0.0000 </r>
       <r>   33.4327    0.0000 </r>
       <r>   34.4467    0.0000 </r>
       <r>   35.8156    0.0000 </r>
       <r>   36.4037    0.0000 </r>
       <r>   36.4865    0.0000 </r>
       <r>   38.3930    0.0000 </r>
      </set>
      <set comment="kpoint 22">
       <r>   -8.8509    1.0000 </r>
       <r>   -8.8509    1.0000 </r>
       <r>    3.1117    0.0000 </r>
       <r>    3.1117    0.0000 </r>
       <r>    5.1650    0.0000 </r>
       <r>    5.1650    0.0000 </r>
       <r>    8.0431    0.0000 </r>
       <r>    8.0431    0.0000 </r>
       <r>   13.3692    0.0000 </r>
       <r>   13.3692    0.0000 </r>
       <r>   13.8789    0.0000 </r>
       <r>   13.8789    0.0000 </r>
       <r>   17.4146    0.0000 </r>
       <r>   17.4146    0.0000 </r>
       <r>   24.6611    0.0000 </r>
       <r>   24.6611    0.0000 </r>
       <r>   25.0929    0.0000 </r>
       <r>   25.0929    0.0000 </r>
       <r>   25.5590    0.0000 </r>
       <r>   25.5590    0.0000 </r>
       <r>   30.0219    0.0000 </r>
       <r>   30.0219    0.0000 </r>
       <r>   31.5177    0.0000 </r>
       <r>   31.5177    0.0000 </r>
       <r>   33.3128    0.0000 </r>
       <r>   33.3128    0.0000 </r>
       <r>   35.2546    0.0000 </r>
       <r>   35.2546    0.0000 </r>
       <r>   35.3503    0.0000 </r>
       <r>   35.3503    0.0000 </r>
       <r>   36.8755    0.0000 </r>
       <r>   36.8755    0.0000 </r>
      </set>
      <set comment="kpoint 23">
       <r>   -9.1941    1.0000 </r>
       <r>   -8.4818    1.0000 </r>
       <r>    3.2191    0.0000 </r>
       <r>    3.2470    0.0000 </r>
       <r>    4.3045    0.0000 </r>
       <r>    6.3805    0.0000 </r>
       <r>    6.5041    0.0000 </r>
       <r>    9.8086    0.0000 </r>
       <r>   11.5091    0.0000 </r>
       <r>   12.4981    0.0000 </r>
       <r>   14.0996    0.0000 </r>
       <r>   14.6012    0.0000 </r>
       <r>   17.3242    0.0000 </r>
       <r>   20.5153    0.0000 </r>
       <r>   20.7905    0.0000 </r>
       <r>   23.4301    0.0000 </r>
       <r>   24.4414    0.0000 </r>
       <r>   26.7869    0.0000 </r>
       <r>   27.7390    0.0000 </r>
       <r>   28.8930    0.0000 </r>
       <r>   30.1406    0.0000 </r>
       <r>   30.1436    0.0000 </r>
       <r>   31.5678    0.0000 </r>
       <r>   31.8657    0.0000 </r>
       <r>   32.2500    0.0000 </r>
       <r>   32.3488    0.0000 </r>
       <r>   32.8187    0.0000 </r>
       <r>   33.0956    0.0000 </r>
       <r>   34.5774    0.0000 </r>
       <r>   35.6713    0.0000 </r>
       <r>   36.1016    0.0000 </r>
       <r>   37.7561    0.0000 </r>
      </set>
      <set comment="kpoint 24">
       <r>   -8.9612    1.0000 </r>
       <r>   -8.5870    1.0000 </r>
       <r>    2.9527    0.0000 </r>
       <r>    2.9589    0.0000 </r>
       <r>    4.8728    0.0000 </r>
       <r>    6.0097    0.0000 </r>
       <r>    7.0581    0.0000 </r>
       <r>    8.8500    0.0000 </r>
       <r>   11.5649    0.0000 </r>
       <r>   12.4010    0.0000 </r>
       <r>   13.0168    0.0000 </r>
       <r>   13.5521    0.0000 </r>
       <r>   18.6187    0.0000 </r>
       <r>   20.5081    0.0000 </r>
       <r>   22.9467    0.0000 </r>
       <r>   24.7539    0.0000 </r>
       <r>   25.6045    0.0000 </r>
       <r>   27.4131    0.0000 </r>
       <r>   28.1198    0.0000 </r>
       <r>   28.1749    0.0000 </r>
       <r>   28.8030    0.0000 </r>
       <r>   31.8342    0.0000 </r>
       <r>   31.9593    0.0000 </r>
       <r>   32.1903    0.0000 </r>
       <r>   32.8536    0.0000 </r>
       <r>   33.0165    0.0000 </r>
       <r>   33.4367    0.0000 </r>
       <r>   33.4821    0.0000 </r>
       <r>   34.0262    0.0000 </r>
       <r>   35.4839    0.0000 </r>
       <r>   36.0044    0.0000 </r>
       <r>   36.4542    0.0000 </r>
      </set>
      <set comment="kpoint 25">
       <r>   -8.7468    1.0000 </r>
       <r>   -8.7468    1.0000 </r>
       <r>    2.8510    0.0000 </r>
       <r>    2.8510    0.0000 </r>
       <r>    5.4674    0.0000 </r>
       <r>    5.4674    0.0000 </r>
       <r>    7.8748    0.0000 </r>
       <r>    7.8748    0.0000 </r>
       <r>   12.1365    0.0000 </r>
       <r>   12.1365    0.0000 </r>
       <r>   12.7862    0.0000 </r>
       <r>   12.7862    0.0000 </r>
       <r>   19.6785    0.0000 </r>
       <r>   19.6785    0.0000 </r>
       <r>   25.5351    0.0000 </r>
       <r>   25.5351    0.0000 </r>
       <r>   26.5993    0.0000 </r>
       <r>   26.5993    0.0000 </r>
       <r>   26.7572    0.0000 </r>
       <r>   26.7572    0.0000 </r>
       <r>   29.9400    0.0000 </r>
       <r>   29.9400    0.0000 </r>
       <r>   32.7082    0.0000 </r>
       <r>   32.7082    0.0000 </r>
       <r>   33.5758    0.0000 </r>
       <r>   33.5758    0.0000 </r>
       <r>   34.1584    0.0000 </r>
       <r>   34.1584    0.0000 </r>
       <r>   35.5944    0.0000 </r>
       <r>   35.5944    0.0000 </r>
       <r>   35.8327    0.0000 </r>
       <r>   35.8327    0.0000 </r>
      </set>
      <set comment="kpoint 26">
       <r>   -8.7945    1.0000 </r>
       <r>   -8.5882    1.0000 </r>
       <r>    2.7117    0.0000 </r>
       <r>    2.7203    0.0000 </r>
       <r>    5.3268    0.0000 </r>
       <r>    5.9728    0.0000 </r>
       <r>    7.4210    0.0000 </r>
       <r>    8.5401    0.0000 </r>
       <r>   11.0048    0.0000 </r>
       <r>   11.9547    0.0000 </r>
       <r>   11.9571    0.0000 </r>
       <r>   12.6148    0.0000 </r>
       <r>   20.4748    0.0000 </r>
       <r>   22.0595    0.0000 </r>
       <r>   24.5268    0.0000 </r>
       <r>   24.9279    0.0000 </r>
       <r>   26.7848    0.0000 </r>
       <r>   27.8870    0.0000 </r>
       <r>   27.9667    0.0000 </r>
       <r>   29.2436    0.0000 </r>
       <r>   29.5482    0.0000 </r>
       <r>   30.2752    0.0000 </r>
       <r>   32.0271    0.0000 </r>
       <r>   32.3057    0.0000 </r>
       <r>   33.5281    0.0000 </r>
       <r>   33.8010    0.0000 </r>
       <r>   33.8551    0.0000 </r>
       <r>   33.9617    0.0000 </r>
       <r>   34.1147    0.0000 </r>
       <r>   34.5579    0.0000 </r>
       <r>   36.2046    0.0000 </r>
       <r>   36.4048    0.0000 </r>
      </set>
      <set comment="kpoint 27">
       <r>   -8.6695    1.0000 </r>
       <r>   -8.6695    1.0000 </r>
       <r>    2.6224    0.0000 </r>
       <r>    2.6224    0.0000 </r>
       <r>    5.7241    0.0000 </r>
       <r>    5.7241    0.0000 </r>
       <r>    7.9963    0.0000 </r>
       <r>    7.9963    0.0000 </r>
       <r>   11.2090    0.0000 </r>
       <r>   11.2090    0.0000 </r>
       <r>   12.0441    0.0000 </r>
       <r>   12.0441    0.0000 </r>
       <r>   21.7726    0.0000 </r>
       <r>   21.7726    0.0000 </r>
       <r>   26.2880    0.0000 </r>
       <r>   26.2880    0.0000 </r>
       <r>   26.9417    0.0000 </r>
       <r>   26.9417    0.0000 </r>
       <r>   27.5800    0.0000 </r>
       <r>   27.5800    0.0000 </r>
       <r>   30.8989    0.0000 </r>
       <r>   30.8989    0.0000 </r>
       <r>   31.0244    0.0000 </r>
       <r>   31.0244    0.0000 </r>
       <r>   33.8897    0.0000 </r>
       <r>   33.8897    0.0000 </r>
       <r>   34.5103    0.0000 </r>
       <r>   34.5103    0.0000 </r>
       <r>   36.0714    0.0000 </r>
       <r>   36.0714    0.0000 </r>
       <r>   36.1519    0.0000 </r>
       <r>   36.1519    0.0000 </r>
      </set>
      <set comment="kpoint 28">
       <r>   -8.6335    1.0000 </r>
       <r>   -8.6335    1.0000 </r>
       <r>    2.5327    0.0000 </r>
       <r>    2.5327    0.0000 </r>
       <r>    5.8297    0.0000 </r>
       <r>    5.8297    0.0000 </r>
       <r>    8.1100    0.0000 </r>
       <r>    8.1100    0.0000 </r>
       <r>   10.8353    0.0000 </r>
       <r>   10.8353    0.0000 </r>
       <r>   11.7764    0.0000 </r>
       <r>   11.7764    0.0000 </r>
       <r>   22.8465    0.0000 </r>
       <r>   22.8465    0.0000 </r>
       <r>   25.9325    0.0000 </r>
       <r>   25.9325    0.0000 </r>
       <r>   27.9219    0.0000 </r>
       <r>   27.9219    0.0000 </r>
       <r>   28.2308    0.0000 </r>
       <r>   28.2308    0.0000 </r>
       <r>   28.9231    0.0000 </r>
       <r>   28.9231    0.0000 </r>
       <r>   31.6234    0.0000 </r>
       <r>   31.6234    0.0000 </r>
       <r>   34.1659    0.0000 </r>
       <r>   34.1659    0.0000 </r>
       <r>   34.2336    0.0000 </r>
       <r>   34.2336    0.0000 </r>
       <r>   36.7967    0.0000 </r>
       <r>   36.7967    0.0000 </r>
       <r>   37.5043    0.0000 </r>
       <r>   37.5043    0.0000 </r>
      </set>
      <set comment="kpoint 29">
       <r>  -10.4303    1.0000 </r>
       <r>   -8.0857    1.0000 </r>
       <r>    1.8666    0.0000 </r>
       <r>    5.2301    0.0000 </r>
       <r>    7.6412    0.0000 </r>
       <r>    8.0627    0.0000 </r>
       <r>    8.0627    0.0000 </r>
       <r>    9.2144    0.0000 </r>
       <r>   10.3496    0.0000 </r>
       <r>   14.7946    0.0000 </r>
       <r>   14.7946    0.0000 </r>
       <r>   17.7097    0.0000 </r>
       <r>   18.0550    0.0000 </r>
       <r>   18.0550    0.0000 </r>
       <r>   20.6941    0.0000 </r>
       <r>   21.5939    0.0000 </r>
       <r>   22.1063    0.0000 </r>
       <r>   22.2136    0.0000 </r>
       <r>   22.3476    0.0000 </r>
       <r>   22.3476    0.0000 </r>
       <r>   25.4722    0.0000 </r>
       <r>   26.7492    0.0000 </r>
       <r>   28.0793    0.0000 </r>
       <r>   28.0793    0.0000 </r>
       <r>   29.4404    0.0000 </r>
       <r>   31.0831    0.0000 </r>
       <r>   31.0831    0.0000 </r>
       <r>   32.4635    0.0000 </r>
       <r>   32.4936    0.0000 </r>
       <r>   35.9199    0.0000 </r>
       <r>   41.0640    0.0000 </r>
       <r>   41.0640    0.0000 </r>
      </set>
      <set comment="kpoint 30">
       <r>  -10.3810    1.0000 </r>
       <r>   -8.0964    1.0000 </r>
       <r>    1.9313    0.0000 </r>
       <r>    5.1036    0.0000 </r>
       <r>    6.7343    0.0000 </r>
       <r>    8.1506    0.0000 </r>
       <r>    8.4055    0.0000 </r>
       <r>    9.0452    0.0000 </r>
       <r>   11.2876    0.0000 </r>
       <r>   14.4923    0.0000 </r>
       <r>   14.7885    0.0000 </r>
       <r>   17.5229    0.0000 </r>
       <r>   18.0022    0.0000 </r>
       <r>   18.5635    0.0000 </r>
       <r>   19.9448    0.0000 </r>
       <r>   20.5776    0.0000 </r>
       <r>   21.5028    0.0000 </r>
       <r>   21.7160    0.0000 </r>
       <r>   24.1838    0.0000 </r>
       <r>   24.2979    0.0000 </r>
       <r>   24.8702    0.0000 </r>
       <r>   26.5916    0.0000 </r>
       <r>   26.8604    0.0000 </r>
       <r>   28.7144    0.0000 </r>
       <r>   29.5888    0.0000 </r>
       <r>   31.1048    0.0000 </r>
       <r>   31.6992    0.0000 </r>
       <r>   32.5846    0.0000 </r>
       <r>   34.1318    0.0000 </r>
       <r>   35.7224    0.0000 </r>
       <r>   40.5179    0.0000 </r>
       <r>   41.1659    0.0000 </r>
      </set>
      <set comment="kpoint 31">
       <r>  -10.2314    1.0000 </r>
       <r>   -8.1570    1.0000 </r>
       <r>    2.1136    0.0000 </r>
       <r>    4.7501    0.0000 </r>
       <r>    5.6055    0.0000 </r>
       <r>    8.4121    0.0000 </r>
       <r>    8.5398    0.0000 </r>
       <r>    8.7413    0.0000 </r>
       <r>   13.2099    0.0000 </r>
       <r>   14.0254    0.0000 </r>
       <r>   14.6751    0.0000 </r>
       <r>   17.1343    0.0000 </r>
       <r>   17.7055    0.0000 </r>
       <r>   18.0803    0.0000 </r>
       <r>   19.7365    0.0000 </r>
       <r>   20.2781    0.0000 </r>
       <r>   20.6102    0.0000 </r>
       <r>   23.1219    0.0000 </r>
       <r>   23.6345    0.0000 </r>
       <r>   24.7575    0.0000 </r>
       <r>   26.5182    0.0000 </r>
       <r>   26.6373    0.0000 </r>
       <r>   27.2291    0.0000 </r>
       <r>   27.7450    0.0000 </r>
       <r>   29.9493    0.0000 </r>
       <r>   32.8653    0.0000 </r>
       <r>   33.0566    0.0000 </r>
       <r>   33.4524    0.0000 </r>
       <r>   35.3147    0.0000 </r>
       <r>   36.4991    0.0000 </r>
       <r>   38.2257    0.0000 </r>
       <r>   40.0677    0.0000 </r>
      </set>
      <set comment="kpoint 32">
       <r>  -10.0000    1.0000 </r>
       <r>   -8.2798    1.0000 </r>
       <r>    2.3770    0.0000 </r>
       <r>    4.2577    0.0000 </r>
       <r>    4.7646    0.0000 </r>
       <r>    7.7795    0.0000 </r>
       <r>    8.8459    0.0000 </r>
       <r>    9.1979    0.0000 </r>
       <r>   13.6867    0.0000 </r>
       <r>   14.1787    0.0000 </r>
       <r>   15.5147    0.0000 </r>
       <r>   16.4114    0.0000 </r>
       <r>   17.3366    0.0000 </r>
       <r>   17.4019    0.0000 </r>
       <r>   19.3542    0.0000 </r>
       <r>   19.7847    0.0000 </r>
       <r>   22.2274    0.0000 </r>
       <r>   22.2910    0.0000 </r>
       <r>   23.0710    0.0000 </r>
       <r>   25.1330    0.0000 </r>
       <r>   26.0457    0.0000 </r>
       <r>   27.7429    0.0000 </r>
       <r>   29.1642    0.0000 </r>
       <r>   29.2006    0.0000 </r>
       <r>   30.7844    0.0000 </r>
       <r>   33.3440    0.0000 </r>
       <r>   34.4349    0.0000 </r>
       <r>   34.4577    0.0000 </r>
       <r>   35.3586    0.0000 </r>
       <r>   35.9778    0.0000 </r>
       <r>   39.0591    0.0000 </r>
       <r>   39.5690    0.0000 </r>
      </set>
      <set comment="kpoint 33">
       <r>   -9.7083    1.0000 </r>
       <r>   -8.4567    1.0000 </r>
       <r>    2.6252    0.0000 </r>
       <r>    3.7264    0.0000 </r>
       <r>    4.3936    0.0000 </r>
       <r>    6.8924    0.0000 </r>
       <r>    9.4488    0.0000 </r>
       <r>    9.8114    0.0000 </r>
       <r>   13.2432    0.0000 </r>
       <r>   13.2561    0.0000 </r>
       <r>   15.6157    0.0000 </r>
       <r>   17.5372    0.0000 </r>
       <r>   17.6031    0.0000 </r>
       <r>   17.7521    0.0000 </r>
       <r>   18.4666    0.0000 </r>
       <r>   20.2859    0.0000 </r>
       <r>   21.0395    0.0000 </r>
       <r>   21.5614    0.0000 </r>
       <r>   24.4419    0.0000 </r>
       <r>   24.5197    0.0000 </r>
       <r>   27.1477    0.0000 </r>
       <r>   28.8827    0.0000 </r>
       <r>   30.5185    0.0000 </r>
       <r>   30.7719    0.0000 </r>
       <r>   31.8913    0.0000 </r>
       <r>   31.9662    0.0000 </r>
       <r>   34.1218    0.0000 </r>
       <r>   35.4722    0.0000 </r>
       <r>   35.7196    0.0000 </r>
       <r>   37.7685    0.0000 </r>
       <r>   38.5969    0.0000 </r>
       <r>   39.7520    0.0000 </r>
      </set>
      <set comment="kpoint 34">
       <r>   -9.3733    1.0000 </r>
       <r>   -8.7137    1.0000 </r>
       <r>    2.7762    0.0000 </r>
       <r>    3.2693    0.0000 </r>
       <r>    4.5846    0.0000 </r>
       <r>    5.9899    0.0000 </r>
       <r>   10.2144    0.0000 </r>
[...]
       <r>    34.9942     1.4216    56.0913 </r>
       <r>    35.0241     2.5285    56.1669 </r>
       <r>    35.0540     1.7977    56.2206 </r>
       <r>    35.0839     1.9429    56.2787 </r>
       <r>    35.1138     0.9413    56.3068 </r>
       <r>    35.1437     1.2191    56.3432 </r>
       <r>    35.1736     0.9924    56.3729 </r>
       <r>    35.2035     1.3288    56.4126 </r>
       <r>    35.2333     1.7386    56.4646 </r>
       <r>    35.2632     1.3082    56.5037 </r>
       <r>    35.2931     1.0258    56.5343 </r>
       <r>    35.3230     2.1353    56.5981 </r>
       <r>    35.3529     1.8730    56.6541 </r>
       <r>    35.3828     2.2690    56.7219 </r>
       <r>    35.4127     2.9810    56.8110 </r>
       <r>    35.4426     1.2012    56.8469 </r>
       <r>    35.4725     3.3340    56.9466 </r>
       <r>    35.5023     4.3276    57.0759 </r>
       <r>    35.5322     4.2457    57.2028 </r>
       <r>    35.5621     2.5820    57.2800 </r>
       <r>    35.5920     1.9368    57.3379 </r>
       <r>    35.6219     2.4686    57.4116 </r>
       <r>    35.6518     1.4663    57.4555 </r>
       <r>    35.6817     3.0077    57.5454 </r>
       <r>    35.7116     2.5110    57.6204 </r>
       <r>    35.7414     3.9372    57.7381 </r>
       <r>    35.7713     2.0846    57.8004 </r>
       <r>    35.8012     1.6234    57.8489 </r>
       <r>    35.8311     1.8746    57.9049 </r>
       <r>    35.8610     2.3752    57.9759 </r>
       <r>    35.8909     3.5750    58.0828 </r>
       <r>    35.9208     1.3902    58.1243 </r>
       <r>    35.9507     1.5274    58.1700 </r>
       <r>    35.9805     1.2374    58.2070 </r>
       <r>    36.0104     2.5225    58.2824 </r>
       <r>    36.0403     1.6818    58.3326 </r>
       <r>    36.0702     1.9382    58.3905 </r>
       <r>    36.1001     1.4092    58.4327 </r>
       <r>    36.1300     1.3228    58.4722 </r>
       <r>    36.1599     1.4594    58.5158 </r>
       <r>    36.1898     2.2857    58.5841 </r>
       <r>    36.2196     4.0933    58.7065 </r>
       <r>    36.2495     1.9610    58.7651 </r>
       <r>    36.2794     2.0742    58.8271 </r>
       <r>    36.3093     1.3983    58.8689 </r>
       <r>    36.3392     1.8910    58.9254 </r>
       <r>    36.3691     2.2999    58.9941 </r>
       <r>    36.3990     2.0641    59.0558 </r>
       <r>    36.4289     2.8845    59.1420 </r>
       <r>    36.4587     2.6710    59.2219 </r>
       <r>    36.4886     1.0537    59.2533 </r>
       <r>    36.5185     3.1123    59.3464 </r>
       <r>    36.5484     1.3626    59.3871 </r>
       <r>    36.5783     1.8555    59.4425 </r>
       <r>    36.6082     1.3697    59.4835 </r>
       <r>    36.6381     2.2311    59.5502 </r>
       <r>    36.6680     0.9992    59.5800 </r>
       <r>    36.6978     1.1792    59.6153 </r>
       <r>    36.7277     2.3803    59.6864 </r>
       <r>    36.7576     1.4923    59.7310 </r>
       <r>    36.7875     0.8667    59.7569 </r>
       <r>    36.8174     1.8114    59.8111 </r>
       <r>    36.8473     3.6655    59.9206 </r>
       <r>    36.8772     1.3661    59.9614 </r>
       <r>    36.9071     1.8831    60.0177 </r>
       <r>    36.9369     2.0860    60.0801 </r>
       <r>    36.9668     1.4998    60.1249 </r>
       <r>    36.9967     1.1387    60.1589 </r>
       <r>    37.0266     2.3642    60.2296 </r>
       <r>    37.0565     3.1233    60.3229 </r>
       <r>    37.0864     1.0802    60.3552 </r>
       <r>    37.1163     1.9062    60.4122 </r>
       <r>    37.1462     1.6282    60.4609 </r>
       <r>    37.1761     2.6572    60.5403 </r>
       <r>    37.2059     3.6055    60.6480 </r>
       <r>    37.2358     1.9685    60.7069 </r>
       <r>    37.2657     1.0994    60.7397 </r>
       <r>    37.2956     1.2229    60.7763 </r>
       <r>    37.3255     0.7559    60.7989 </r>
       <r>    37.3554     1.2615    60.8366 </r>
       <r>    37.3853     1.3737    60.8776 </r>
       <r>    37.4152     1.4244    60.9202 </r>
       <r>    37.4450     0.9556    60.9488 </r>
       <r>    37.4749     1.2127    60.9850 </r>
       <r>    37.5048     2.3909    61.0565 </r>
       <r>    37.5347     1.5342    61.1023 </r>
       <r>    37.5646     1.7520    61.1547 </r>
       <r>    37.5945     2.0503    61.2160 </r>
       <r>    37.6244     1.3468    61.2562 </r>
       <r>    37.6543     0.6560    61.2758 </r>
       <r>    37.6841     0.1467    61.2802 </r>
       <r>    37.7140     1.2125    61.3164 </r>
       <r>    37.7439     2.7794    61.3995 </r>
       <r>    37.7738     2.0480    61.4607 </r>
       <r>    37.8037     0.8282    61.4855 </r>
       <r>    37.8336     1.7252    61.5370 </r>
       <r>    37.8635     1.4585    61.5806 </r>
       <r>    37.8934     2.0741    61.6426 </r>
       <r>    37.9232     0.9054    61.6697 </r>
       <r>    37.9531     0.7494    61.6921 </r>
       <r>    37.9830     1.3734    61.7331 </r>
       <r>    38.0129     2.9928    61.8226 </r>
       <r>    38.0428     1.1125    61.8558 </r>
       <r>    38.0727     1.6981    61.9066 </r>
       <r>    38.1026     0.9508    61.9350 </r>
       <r>    38.1325     0.5249    61.9507 </r>
       <r>    38.1623     1.6423    61.9998 </r>
       <r>    38.1922     1.2158    62.0361 </r>
       <r>    38.2221     3.4734    62.1399 </r>
       <r>    38.2520     1.6672    62.1897 </r>
       <r>    38.2819     1.7686    62.2426 </r>
       <r>    38.3118     2.4306    62.3152 </r>
       <r>    38.3417     3.1833    62.4104 </r>
       <r>    38.3716     1.7789    62.4635 </r>
       <r>    38.4014     2.0601    62.5251 </r>
       <r>    38.4313     1.3732    62.5662 </r>
       <r>    38.4612     1.5343    62.6120 </r>
       <r>    38.4911     1.0574    62.6436 </r>
       <r>    38.5210     0.6143    62.6620 </r>
       <r>    38.5509     0.7326    62.6839 </r>
       <r>    38.5808     2.6319    62.7625 </r>
       <r>    38.6107     0.5147    62.7779 </r>
       <r>    38.6405     0.9367    62.8059 </r>
       <r>    38.6704     0.9050    62.8330 </r>
       <r>    38.7003     2.2181    62.8993 </r>
       <r>    38.7302     1.5878    62.9467 </r>
       <r>    38.7601     0.5454    62.9630 </r>
       <r>    38.7900     1.7456    63.0152 </r>
       <r>    38.8199     2.1313    63.0789 </r>
       <r>    38.8498     0.4627    63.0927 </r>
       <r>    38.8797     0.6155    63.1111 </r>
       <r>    38.9095     0.0215    63.1117 </r>
       <r>    38.9394     0.8875    63.1383 </r>
       <r>    38.9693     0.2307    63.1452 </r>
       <r>    38.9992     1.6207    63.1936 </r>
       <r>    39.0291     1.8881    63.2500 </r>
       <r>    39.0590     1.4965    63.2948 </r>
       <r>    39.0889     2.3060    63.3637 </r>
       <r>    39.1188     0.8278    63.3884 </r>
       <r>    39.1486     0.5484    63.4048 </r>
       <r>    39.1785     1.3135    63.4441 </r>
       <r>    39.2084     2.1720    63.5090 </r>
       <r>    39.2383     0.4145    63.5214 </r>
       <r>    39.2682     1.2526    63.5588 </r>
       <r>    39.2981     0.9729    63.5879 </r>
       <r>    39.3280     0.4221    63.6005 </r>
       <r>    39.3579     0.5101    63.6158 </r>
       <r>    39.3877     0.2386    63.6229 </r>
       <r>    39.4176     0.8381    63.6479 </r>
       <r>    39.4475     1.1011    63.6808 </r>
       <r>    39.4774     0.9215    63.7084 </r>
       <r>    39.5073     0.5022    63.7234 </r>
       <r>    39.5372     0.1158    63.7269 </r>
       <r>    39.5671     0.4223    63.7395 </r>
       <r>    39.5970     1.0383    63.7705 </r>
       <r>    39.6268     0.4083    63.7827 </r>
       <r>    39.6567     0.0286    63.7836 </r>
       <r>    39.6866     0.0048    63.7837 </r>
       <r>    39.7165     1.2139    63.8200 </r>
       <r>    39.7464     0.4106    63.8323 </r>
       <r>    39.7763     0.5376    63.8483 </r>
       <r>    39.8062     0.3273    63.8581 </r>
       <r>    39.8361     0.2942    63.8669 </r>
       <r>    39.8659     0.4825    63.8813 </r>
       <r>    39.8958     0.3272    63.8911 </r>
       <r>    39.9257     0.2741    63.8993 </r>
       <r>    39.9556     0.0004    63.8993 </r>
       <r>    39.9855     0.0000    63.8993 </r>
       <r>    40.0154     0.0000    63.8993 </r>
       <r>    40.0453     0.2576    63.9070 </r>
       <r>    40.0752     0.6263    63.9257 </r>
       <r>    40.1050     0.2089    63.9320 </r>
       <r>    40.1349     0.1463    63.9363 </r>
       <r>    40.1648     0.0000    63.9363 </r>
       <r>    40.1947     0.0000    63.9363 </r>
       <r>    40.2246     0.0000    63.9363 </r>
       <r>    40.2545     0.0000    63.9363 </r>
       <r>    40.2844     0.0000    63.9363 </r>
       <r>    40.3143     0.0000    63.9363 </r>
       <r>    40.3441     0.0000    63.9363 </r>
       <r>    40.3740     0.0000    63.9363 </r>
       <r>    40.4039     0.0000    63.9363 </r>
       <r>    40.4338     0.0000    63.9363 </r>
       <r>    40.4637     0.0000    63.9363 </r>
       <r>    40.4936     0.0001    63.9363 </r>
       <r>    40.5235     0.2431    63.9436 </r>
       <r>    40.5534     0.0667    63.9456 </r>
       <r>    40.5832     0.0691    63.9477 </r>
       <r>    40.6131     0.0083    63.9479 </r>
       <r>    40.6430     0.0000    63.9479 </r>
       <r>    40.6729     0.0000    63.9479 </r>
       <r>    40.7028     0.0000    63.9479 </r>
       <r>    40.7327     0.0000    63.9479 </r>
       <r>    40.7626     0.0058    63.9481 </r>
       <r>    40.7925     0.2991    63.9570 </r>
       <r>    40.8224     0.0050    63.9572 </r>
       <r>    40.8522     0.0000    63.9572 </r>
       <r>    40.8821     0.1969    63.9631 </r>
       <r>    40.9120     0.1229    63.9667 </r>
       <r>    40.9419     0.2971    63.9756 </r>
       <r>    40.9718     0.0027    63.9757 </r>
       <r>    41.0017     0.0000    63.9757 </r>
       <r>    41.0316     0.0000    63.9757 </r>
       <r>    41.0615     0.0560    63.9774 </r>
       <r>    41.0913     0.0988    63.9803 </r>
       <r>    41.1212     0.0000    63.9803 </r>
       <r>    41.1511     0.0057    63.9805 </r>
       <r>    41.1810     0.2991    63.9894 </r>
       <r>    41.2109     0.0051    63.9896 </r>
       <r>    41.2408     0.0000    63.9896 </r>
       <r>    41.2707     0.0000    63.9896 </r>
       <r>    41.3006     0.0000    63.9896 </r>
       <r>    41.3304     0.0000    63.9896 </r>
       <r>    41.3603     0.0000    63.9896 </r>
       <r>    41.3902     0.0000    63.9896 </r>
       <r>    41.4201     0.0000    63.9896 </r>
       <r>    41.4500     0.0000    63.9896 </r>
       <r>    41.4799     0.0000    63.9896 </r>
       <r>    41.5098     0.0000    63.9896 </r>
       <r>    41.5397     0.0000    63.9896 </r>
       <r>    41.5695     0.0000    63.9896 </r>
       <r>    41.5994     0.1022    63.9926 </r>
       <r>    41.6293     0.0527    63.9942 </r>
       <r>    41.6592     0.0000    63.9942 </r>
       <r>    41.6891     0.0000    63.9942 </r>
       <r>    41.7190     0.0000    63.9942 </r>
       <r>    41.7489     0.0000    63.9942 </r>
       <r>    41.7788     0.0000    63.9942 </r>
       <r>    41.8086     0.0000    63.9942 </r>
       <r>    41.8385     0.0000    63.9942 </r>
       <r>    41.8684     0.0000    63.9942 </r>
       <r>    41.8983     0.0000    63.9942 </r>
       <r>    41.9282     0.0000    63.9942 </r>
       <r>    41.9581     0.0000    63.9942 </r>
       <r>    41.9880     0.0000    63.9942 </r>
       <r>    42.0179     0.0000    63.9942 </r>
       <r>    42.0477     0.0465    63.9956 </r>
       <r>    42.0776     0.1083    63.9988 </r>
       <r>    42.1075     0.0000    63.9988 </r>
       <r>    42.1374     0.0000    63.9988 </r>
       <r>    42.1673     0.0000    63.9988 </r>
       <r>    42.1972     0.0000    63.9988 </r>
       <r>    42.2271     0.0000    63.9988 </r>
       <r>    42.2570     0.0000    63.9988 </r>
       <r>    42.2868     0.0000    63.9988 </r>
       <r>    42.3167     0.0000    63.9988 </r>
       <r>    42.3466     0.0000    63.9988 </r>
       <r>    42.3765     0.0000    63.9988 </r>
       <r>    42.4064     0.0000    63.9988 </r>
       <r>    42.4363     0.0000    63.9988 </r>
       <r>    42.4662     0.0000    63.9988 </r>
       <r>    42.4961     0.0000    63.9988 </r>
       <r>    42.5260     0.0000    63.9988 </r>
       <r>    42.5558     0.0000    63.9988 </r>
       <r>    42.5857     0.0000    63.9988 </r>
       <r>    42.6156     0.0000    63.9988 </r>
       <r>    42.6455     0.0000    63.9988 </r>
       <r>    42.6754     0.0000    63.9988 </r>
       <r>    42.7053     0.0000    63.9988 </r>
       <r>    42.7352     0.0000    63.9988 </r>
       <r>    42.7651     0.0000    63.9988 </r>
       <r>    42.7949     0.0000    63.9988 </r>
       <r>    42.8248     0.0000    63.9988 </r>
       <r>    42.8547     0.0000    63.9988 </r>
       <r>    42.8846     0.0000    63.9988 </r>
       <r>    42.9145     0.0000    63.9988 </r>
       <r>    42.9444     0.0000    63.9988 </r>
       <r>    42.9743     0.0000    63.9988 </r>
       <r>    43.0042     0.0000    63.9988 </r>
       <r>    43.0340     0.0000    63.9988 </r>
       <r>    43.0639     0.0000    63.9988 </r>
       <r>    43.0938     0.0000    63.9988 </r>
       <r>    43.1237     0.0000    63.9988 </r>
       <r>    43.1536     0.0000    63.9988 </r>
       <r>    43.1835     0.0000    63.9988 </r>
       <r>    43.2134     0.0000    63.9988 </r>
       <r>    43.2433     0.0000    63.9988 </r>
       <r>    43.2731     0.0000    63.9988 </r>
       <r>    43.3030     0.0000    63.9988 </r>
       <r>    43.3329     0.0000    63.9988 </r>
       <r>    43.3628     0.0000    63.9988 </r>
       <r>    43.3927     0.0000    63.9988 </r>
       <r>    43.4226     0.0000    63.9988 </r>
       <r>    43.4525     0.0000    63.9988 </r>
       <r>    43.4824     0.0000    63.9988 </r>
       <r>    43.5122     0.0000    63.9988 </r>
       <r>    43.5421     0.0000    63.9988 </r>
       <r>    43.5720     0.0000    63.9988 </r>
       <r>    43.6019     0.0000    63.9988 </r>
       <r>    43.6318     0.0000    63.9988 </r>
       <r>    43.6617     0.0000    63.9988 </r>
       <r>    43.6916     0.0000    63.9988 </r>
       <r>    43.7215     0.0000    63.9988 </r>
       <r>    43.7513     0.0000    63.9988 </r>
       <r>    43.7812     0.0000    63.9988 </r>
       <r>    43.8111     0.0000    63.9988 </r>
       <r>    43.8410     0.0109    63.9992 </r>
       <r>    43.8709     0.0278    64.0000 </r>
       <r>    43.9008     0.0000    64.0000 </r>
       <r>    43.9307     0.0000    64.0000 </r>
       <r>    43.9606     0.0000    64.0000 </r>
       <r>    43.9904     0.0000    64.0000 </r>
       <r>    44.0203     0.0000    64.0000 </r>
       <r>    44.0502     0.0000    64.0000 </r>
       <r>    44.0801     0.0000    64.0000 </r>
       <r>    44.1100     0.0000    64.0000 </r>
       <r>    44.1399     0.0000    64.0000 </r>
       <r>    44.1698     0.0000    64.0000 </r>
       <r>    44.1997     0.0000    64.0000 </r>
       <r>    44.2296     0.0000    64.0000 </r>
       <r>    44.2594     0.0000    64.0000 </r>
       <r>    44.2893     0.0000    64.0000 </r>
       <r>    44.3192     0.0000    64.0000 </r>
       <r>    44.3491     0.0000    64.0000 </r>
       <r>    44.3790     0.0000    64.0000 </r>
       <r>    44.4089     0.0000    64.0000 </r>
       <r>    44.4388     0.0000    64.0000 </r>
       <r>    44.4687     0.0000    64.0000 </r>
       <r>    44.4985     0.0000    64.0000 </r>
       <r>    44.5284     0.0000    64.0000 </r>
       <r>    44.5583     0.0000    64.0000 </r>
       <r>    44.5882     0.0000    64.0000 </r>
       <r>    44.6181     0.0000    64.0000 </r>
       <r>    44.6480     0.0000    64.0000 </r>
       <r>    44.6779     0.0000    64.0000 </r>
       <r>    44.7078     0.0000    64.0000 </r>
       <r>    44.7376     0.0000    64.0000 </r>
       <r>    44.7675     0.0000    64.0000 </r>
       <r>    44.7974     0.0000    64.0000 </r>
       <r>    44.8273     0.0000    64.0000 </r>
       <r>    44.8572     0.0000    64.0000 </r>
       <r>    44.8871     0.0000    64.0000 </r>
       <r>    44.9170     0.0000    64.0000 </r>
       <r>    44.9469     0.0000    64.0000 </r>
       <r>    44.9767     0.0000    64.0000 </r>
       <r>    45.0066     0.0000    64.0000 </r>
       <r>    45.0365     0.0000    64.0000 </r>
       <r>    45.0664     0.0000    64.0000 </r>
       <r>    45.0963     0.0000    64.0000 </r>
       <r>    45.1262     0.0000    64.0000 </r>
       <r>    45.1561     0.0000    64.0000 </r>
       <r>    45.1860     0.0000    64.0000 </r>
       <r>    45.2158     0.0000    64.0000 </r>
       <r>    45.2457     0.0000    64.0000 </r>
       <r>    45.2756     0.0000    64.0000 </r>
       <r>    45.3055     0.0000    64.0000 </r>
       <r>    45.3354     0.0000    64.0000 </r>
       <r>    45.3653     0.0000    64.0000 </r>
       <r>    45.3952     0.0000    64.0000 </r>
       <r>    45.4251     0.0000    64.0000 </r>
       <r>    45.4549     0.0000    64.0000 </r>
       <r>    45.4848     0.0000    64.0000 </r>
       <r>    45.5147     0.0000    64.0000 </r>
       <r>    45.5446     0.0000    64.0000 </r>
       <r>    45.5745     0.0000    64.0000 </r>
       <r>    45.6044     0.0000    64.0000 </r>
       <r>    45.6343     0.0000    64.0000 </r>
       <r>    45.6642     0.0000    64.0000 </r>
       <r>    45.6940     0.0000    64.0000 </r>
       <r>    45.7239     0.0000    64.0000 </r>
       <r>    45.7538     0.0000    64.0000 </r>
       <r>    45.7837     0.0000    64.0000 </r>
       <r>    45.8136     0.0000    64.0000 </r>
       <r>    45.8435     0.0000    64.0000 </r>
       <r>    45.8734     0.0000    64.0000 </r>
       <r>    45.9033     0.0000    64.0000 </r>
       <r>    45.9332     0.0000    64.0000 </r>
       <r>    45.9630     0.0000    64.0000 </r>
       <r>    45.9929     0.0000    64.0000 </r>
       <r>    46.0228     0.0000    64.0000 </r>
       <r>    46.0527     0.0000    64.0000 </r>
       <r>    46.0826     0.0000    64.0000 </r>
       <r>    46.1125     0.0000    64.0000 </r>
       <r>    46.1424     0.0000    64.0000 </r>
       <r>    46.1723     0.0000    64.0000 </r>
       <r>    46.2021     0.0000    64.0000 </r>
       <r>    46.2320     0.0000    64.0000 </r>
       <r>    46.2619     0.0000    64.0000 </r>
       <r>    46.2918     0.0000    64.0000 </r>
       <r>    46.3217     0.0000    64.0000 </r>
       <r>    46.3516     0.0000    64.0000 </r>
       <r>    46.3815     0.0000    64.0000 </r>
       <r>    46.4114     0.0000    64.0000 </r>
       <r>    46.4412     0.0000    64.0000 </r>
       <r>    46.4711     0.0000    64.0000 </r>
       <r>    46.5010     0.0000    64.0000 </r>
       <r>    46.5309     0.0000    64.0000 </r>
       <r>    46.5608     0.0000    64.0000 </r>
      </set>
     </set>
    </array>
   </total>
  </dos>
 </calculation>
 <structure name="finalpos" >
  <crystal>
   <varray name="basis" >
    <v>       3.38094200       0.00000000       0.00000000 </v>
    <v>       0.00000000       3.38094200       0.00000000 </v>
    <v>       0.00000000       0.00000000       4.12054000 </v>
   </varray>
   <i name="volume">     47.10094010 </i>
   <varray name="rec_basis" >
    <v>       0.29577556      -0.00000000       0.00000000 </v>
    <v>       0.00000000       0.29577556       0.00000000 </v>
    <v>      -0.00000000      -0.00000000       0.24268664 </v>
   </varray>
  </crystal>
  <varray name="positions" >
   <v>       0.00000000       0.00000000       0.90896500 </v>
   <v>       0.00000000       0.00000000       0.09103500 </v>
   <v>       0.50000000       0.50000000       0.40896500 </v>
   <v>       0.50000000       0.50000000       0.59103500 </v>
  </varray>
 </structure>
</modeling>
