unknown system                          
           1
     3.380942    0.000000    0.000000
     0.000000    3.380942    0.000000
     0.000000    0.000000    4.120540
   H 
   4
Direct configuration=     1
   0.00000000  0.00000000  0.90896500
   0.00000000  0.00000000  0.09103500
   0.50000000  0.50000000  0.40896500
   0.50000000  0.50000000  0.59103500
