 DBCSR| CPU Multiplication driver                                           XSMM
 DBCSR| Multrec recursion limit                                              512
 DBCSR| Multiplication stack size                                           1000
 DBCSR| Maximum elements for images                                    UNLIMITED
 DBCSR| Multiplicative factor virtual images                                   1
 DBCSR| Use multiplication densification                                       T
 DBCSR| Multiplication size stacks                                             3
 DBCSR| Use memory pool for CPU allocation                                     F
 DBCSR| Number of 3D layers                                               SINGLE
 DBCSR| Use MPI memory allocation                                              F
 DBCSR| Use RMA algorithm                                                      F
 DBCSR| Use Communication thread                                               T
 DBCSR| Communication thread load                                             87
 DBCSR| MPI: My node id                                                        0
 DBCSR| MPI: Number of nodes                                                   1
 DBCSR| OMP: Current number of threads                                         1
 DBCSR| OMP: Max number of threads                                             1
 DBCSR| Split modifier for TAS multiplication algorithm                  1.0E+00


  **** **** ******  **  PROGRAM STARTED AT               2022-12-12 18:15:01.713
 ***** ** ***  *** **   PROGRAM STARTED ON                       xissand-MS-7A34
 **    ****   ******    PROGRAM STARTED BY                                     j
 ***** **    ** ** **   PROGRAM PROCESS ID                                101028
  **** **  *******  **  PROGRAM STARTED IN     /home/j/Study/QMComp/HW/3_cp2k/T1

 CP2K| version string:                 CP2K version 2022.1 (Development Version)
 CP2K| source code revision number:                                  git:a213519
 CP2K| cp2kflags: omp fftw3 libxc elpa parallel mpi3 scalapack cosma xsmm spglib
 CP2K|             sirius libvori libbqb libvdwxc
 CP2K| is freely available from                            https://www.cp2k.org/
 CP2K| Program compiled at                       Tue Nov  8 04:05:17 PM MSK 2022
 CP2K| Program compiled on                                       xissand-MS-7A34
 CP2K| Program compiled for                                                local
 CP2K| Data directory path                          /home/j/Study/cp2k/cp2k/data
 CP2K| Input file name                                                  cp2k.inp

 GLOBAL| Force Environment number                                              1
 GLOBAL| Basis set file name                                           BASIS_SET
 GLOBAL| Potential file name                                      GTH_POTENTIALS
 GLOBAL| MM Potential file name                                     MM_POTENTIAL
 GLOBAL| Coordinate file name                                      __STD_INPUT__
 GLOBAL| Method name                                                        CP2K
 GLOBAL| Project name                                                 H2_08_1600
 GLOBAL| Run type                                                   ENERGY_FORCE
 GLOBAL| FFT library                                                       FFTW3
 GLOBAL| Diagonalization library                                            ELPA
 GLOBAL| DGEMM library                                                      BLAS
 GLOBAL| Minimum number of eigenvectors for ELPA usage                        16
 GLOBAL| Orthonormality check for eigenvectors                          DISABLED
 GLOBAL| Matrix multiplication library                                     COSMA
 GLOBAL| All-to-all communication in single precision                          F
 GLOBAL| FFTs using library dependent lengths                                  F
 GLOBAL| Grid backend                                                       AUTO
 GLOBAL| Global print level                                                  LOW
 GLOBAL| MPI I/O enabled                                                       T
 GLOBAL| Total number of message passing processes                             1
 GLOBAL| Number of threads for this process                                    1
 GLOBAL| This output is from process                                           0
 GLOBAL| Stack size for threads created by OpenMP (OMP_STACKSIZE)        default
 GLOBAL| CPU model name                    AMD Ryzen 5 1500X Quad-Core Processor
 GLOBAL| CPUID                                                              1002
 GLOBAL| Compiled for CPUID                                                    0

 *** HINT in environment.F:884 :: The compiler target flags (generic) used ***
 *** to build this binary cannot exploit all extensions of this CPU model  ***
 *** (x86_avx2). Consider compiler target flags as part of FCFLAGS and     ***
 *** CFLAGS (ARCH file).                                                   ***


 MEMORY| system memory details [Kb]
 MEMORY|                        rank 0           min           max       average
 MEMORY| MemTotal             16331996      16331996      16331996      16331996
 MEMORY| MemFree               5929980       5929980       5929980       5929980
 MEMORY| Buffers               1155472       1155472       1155472       1155472
 MEMORY| Cached                4267480       4267480       4267480       4267480
 MEMORY| Slab                   804068        804068        804068        804068
 MEMORY| SReclaimable           630268        630268        630268        630268
 MEMORY| MemLikelyFree        11983200      11983200      11983200      11983200


 GENERATE|  Preliminary Number of Bonds generated:                             0
 GENERATE|  Achieved consistency in connectivity generation.

 *******************************************************************************
 *******************************************************************************
 **                                                                           **
 **     #####                         ##              ##                      **
 **    ##   ##            ##          ##              ##                      **
 **   ##     ##                       ##            ######                    **
 **   ##     ##  ##   ##  ##   #####  ##  ##   ####   ##    #####    #####    **
 **   ##     ##  ##   ##  ##  ##      ## ##   ##      ##   ##   ##  ##   ##   **
 **   ##  ## ##  ##   ##  ##  ##      ####     ###    ##   ######   ######    **
 **    ##  ###   ##   ##  ##  ##      ## ##      ##   ##   ##       ##        **
 **     #######   #####   ##   #####  ##  ##  ####    ##    #####   ##        **
 **           ##                                                    ##        **
 **                                                                           **
 **                                                ... make the atoms dance   **
 **                                                                           **
 **            Copyright (C) by CP2K developers group (2000-2022)             **
 **                      J. Chem. Phys. 152, 194103 (2020)                    **
 **                                                                           **
 *******************************************************************************
 
  **************************************
  restricted calculation cutting corners
  experimental feature, check code      
  **************************************


 TOTAL NUMBERS AND MAXIMUM NUMBERS

  Total number of            - Atomic kinds:                                   1
                             - Atoms:                                          2
                             - Shell sets:                                     4
                             - Shells:                                         6
                             - Primitive Cartesian functions:                 10
                             - Cartesian basis functions:                     10
                             - Spherical basis functions:                     10

  Maximum angular momentum of- Orbital basis functions:                        1
                             - Local part of the GTH pseudopotential:          2


 SCF PARAMETERS         Density guess:                                    ATOMIC
                        --------------------------------------------------------
                        max_scf:                                             400
                        max_scf_history:                                       0
                        max_diis:                                              4
                        --------------------------------------------------------
                        eps_scf:                                        1.00E-06
                        eps_scf_history:                                0.00E+00
                        eps_diis:                                       1.00E-01
                        eps_eigval:                                     1.00E-05
                        --------------------------------------------------------
                        level_shift [a.u.]:                             0.000000
                        --------------------------------------------------------
                        No outer SCF

 Spin 1

 Number of electrons:                                                          2
 Number of occupied orbitals:                                                  2
 Number of molecular orbitals:                                                 2

 Spin 2

 Number of electrons:                                                          0
 Number of occupied orbitals:                                                  0
 Number of molecular orbitals:                                                 0

 Number of orbital functions:                                                 10
 Number of independent orbital functions:                                     10

 Extrapolation method: initial_guess


 SCF WAVEFUNCTION OPTIMIZATION

  ----------------------------------- OT ---------------------------------------
  Allowing for rotations 
  Minimizer      : DIIS                : direct inversion
                                         in the iterative subspace
                                         using   7 DIIS vectors
                                         safer DIIS on
  Preconditioner : FULL_SINGLE         : diagonalization based
  Precond_solver : DEFAULT
  stepsize       :    0.15000000                  energy_gap     :    0.20000000
  eps_taylor     :   0.10000E-15                  max_taylor     :             4
  ----------------------------------- OT ---------------------------------------

  Step     Update method      Time    Convergence         Total energy    Change
  ------------------------------------------------------------------------------
     1 OT DIIS     0.15E+00    0.5     0.05504618        -0.8595213328 -8.60E-01
     2 OT SD       0.15E+00    0.6     0.05626939        -0.8686666355 -9.15E-03
     3 OT SD       0.15E+00    0.5     0.05837389        -0.8783273141 -9.66E-03
     4 OT DIIS     0.15E+00    0.5     0.06026832        -0.8887175819 -1.04E-02
     5 OT SD       0.15E+00    0.5     0.04585064        -0.9690682201 -8.04E-02
     6 OT DIIS     0.15E+00    0.5     0.03350922        -0.9744980825 -5.43E-03
     7 OT SD       0.15E+00    0.5     0.09041295        -0.8096920559  1.65E-01
     8 OT DIIS     0.15E+00    0.5     0.06352393        -0.8303985025 -2.07E-02
     9 OT DIIS     0.15E+00    0.5     0.10485522        -0.8333978000 -3.00E-03
    10 OT DIIS     0.15E+00    0.5     0.07621112        -0.9082660618 -7.49E-02
    11 OT DIIS     0.15E+00    0.5     0.07192896        -0.9392707364 -3.10E-02
    12 OT DIIS     0.15E+00    0.5     0.07730338        -0.8592289924  8.00E-02
    13 OT DIIS     0.15E+00    0.5     0.06795670        -0.8899950948 -3.08E-02
    14 OT DIIS     0.15E+00    0.5     0.06868659        -0.9006441221 -1.06E-02
    15 OT DIIS     0.15E+00    0.5     0.06735632        -0.9234704333 -2.28E-02
    16 OT DIIS     0.15E+00    0.5     0.03464303        -0.9743710694 -5.09E-02
    17 OT DIIS     0.15E+00    0.5     0.01183178        -0.9810996344 -6.73E-03
    18 OT SD       0.15E+00    0.5     0.01152717        -0.9811745972 -7.50E-05
    19 OT DIIS     0.15E+00    0.5     0.00755568        -0.9815005817 -3.26E-04
    20 OT DIIS     0.15E+00    0.5     0.04359490        -0.9686442484  1.29E-02
    21 OT DIIS     0.15E+00    0.5     0.00983669        -0.9814329987 -1.28E-02
    22 OT DIIS     0.15E+00    0.5     0.00964507        -0.9813926274  4.04E-05
    23 OT DIIS     0.15E+00    0.5     0.00035780        -0.9818876262 -4.95E-04
    24 OT DIIS     0.15E+00    0.5     0.00065082        -0.9818863498  1.28E-06
    25 OT DIIS     0.15E+00    0.5     0.00013684        -0.9818880849 -1.74E-06
    26 OT DIIS     0.15E+00    0.5     0.00013612        -0.9818880791  5.80E-09
    27 OT DIIS     0.15E+00    0.5     0.00006497        -0.9818881442 -6.50E-08
    28 OT DIIS     0.15E+00    0.5     0.00001879        -0.9818881644 -2.03E-08
    29 OT DIIS     0.15E+00    0.5     0.00000237        -0.9818881651 -6.82E-10
    30 OT DIIS     0.15E+00    0.5     0.00000130        -0.9818881651 -1.48E-11
    31 OT DIIS     0.15E+00    0.5     0.00000069        -0.9818881651 -2.75E-12

  *** SCF run converged in    31 steps ***


  Electronic density on regular grids:         -1.9999999995        0.0000000005
  Core density on regular grids:                1.9999999999       -0.0000000001
  Total charge density on r-space grids:        0.0000000004
  Total charge density g-space grids:           0.0000000004

  Overlap energy of the core charge distribution:               0.00000000000000
  Self energy of the core charge distribution:                 -2.82094791773878
  Core Hamiltonian energy:                                      0.96580858854534
  Hartree energy:                                               1.51772096493881
  Exchange-correlation energy:                                 -0.64446980088500

  Total energy:                                                -0.98188816513964

  Integrated absolute spin density  :                               1.9999999995
  Ideal and single determinant S**2 :                    2.000000       2.000000

 ENERGY| Total FORCE_EVAL ( QS ) energy [a.u.]:               -0.981888165140443

 -------------------------------------------------------------------------------
 -                                                                             -
 -                                DBCSR STATISTICS                             -
 -                                                                             -
 -------------------------------------------------------------------------------
 COUNTER                                    TOTAL       BLAS       SMM       ACC
 flops     2 x     2 x     2                 9808      25.4%     74.6%      0.0%
 flops     2 x     2 x    10                12400       0.0%    100.0%      0.0%
 flops    10 x     2 x    10                12800       0.0%    100.0%      0.0%
 flops    10 x     2 x     2                14800       0.0%    100.0%      0.0%
 flops     5 x     5 x     2                48300       0.0%    100.0%      0.0%
 flops     5 x     2 x     5                78400       0.0%    100.0%      0.0%
 flops inhomo. stacks                           0       0.0%      0.0%      0.0%
 flops total                       176.508000E+03       1.4%     98.6%      0.0%
 flops max/rank                    176.508000E+03       1.4%     98.6%      0.0%
 matmuls inhomo. stacks                         0       0.0%      0.0%      0.0%
 matmuls total                               2252       6.9%     93.1%      0.0%
 number of processed stacks                  1342      11.6%     88.4%      0.0%
 average stack size                                     1.0       1.8       0.0
 marketing flops                   192.688000E+03
 -------------------------------------------------------------------------------
 # multiplications                           1406
 max memory usage/rank             272.879616E+06
 # max total images/rank                        1
 # max 3D layers                                1
 # MPI messages exchanged                       0
 -------------------------------------------------------------------------------
 -                                                                             -
 -                      DBCSR MESSAGE PASSING PERFORMANCE                      -
 -                                                                             -
 -------------------------------------------------------------------------------
 ROUTINE             CALLS      AVE VOLUME [Bytes]
 MP_Bcast                7                     12.
 MP_Allreduce         7343                      8.
 MP_Alltoall          6343                     34.
 MP_ISend             5432                     33.
 MP_IRecv             5432                     33.
 -------------------------------------------------------------------------------

 -------------------------------------------------------------------------------
 -                                                                             -
 -                                DBM STATISTICS                               -
 -                                                                             -
 -------------------------------------------------------------------------------
    M  x    N  x    K                                          COUNT     PERCENT
 -------------------------------------------------------------------------------

 -------------------------------------------------------------------------------
 -                                                                             -
 -                                GRID STATISTICS                              -
 -                                                                             -
 -------------------------------------------------------------------------------
 LP    KERNEL             BACKEND                              COUNT     PERCENT
 0     collocate ortho    REF                                  33600      34.86%
 0     integrate ortho    REF                                  32550      33.77%
 1     integrate ortho    REF                                  14442      14.98%
 1     collocate ortho    REF                                  13824      14.34%
 2     integrate ortho    REF                                   1176       1.22%
 2     collocate ortho    REF                                    768       0.80%
 3     integrate ortho    REF                                     24       0.02%
 0     collocate general  REF                                      2       0.00%
 1     integrate general  REF                                      2       0.00%
 -------------------------------------------------------------------------------

 MEMORY| Estimated peak process memory [MiB]                                 261

 -------------------------------------------------------------------------------
 -                                                                             -
 -                         MESSAGE PASSING PERFORMANCE                         -
 -                                                                             -
 -------------------------------------------------------------------------------

 ROUTINE             CALLS      AVE VOLUME [Bytes]
 MP_Group                4
 MP_Bcast              144                   1884.
 MP_Allreduce          949                      8.
 MP_Sync                 8
 -------------------------------------------------------------------------------


 -------------------------------------------------------------------------------
 -                                                                             -
 -                           R E F E R E N C E S                               -
 -                                                                             -
 -------------------------------------------------------------------------------
 
 CP2K version 2022.1 (Development Version), the CP2K developers group (2022).
 CP2K is freely available from https://www.cp2k.org/ .

 Kuehne,Thomas D.; Iannuzzi,Marcella; Del Ben,Mauro;
 Rybkin,Vladimir V.; Seewald,Patrick; Stein,Frederick; Laino,Teodoro;
 Khaliullin,Rustam Z.; Schuett,Ole; Schiffmann,Florian; Golze,Dorothea;
 Wilhelm,Jan; Chulkov,Sergey; Bani-Hashemian,Mohammad Hossein;
 Weber,Valery; Borstnik,Urban; Taillefumier,Mathieu;
 Jakobovits,Alice Shoshana; Lazzaro,Alfio; Pabst,Hans; Mueller,Tiziano;
 Schade,Robert; Guidon,Manuel; Andermatt,Samuel; Holmberg,Nico;
 Schenter,Gregory K.; Hehn,Anna; Bussy,Augustin; Belleflamme,Fabian;
 Tabacchi,Gloria; Gloess,Andreas; Lass,Michael; Bethune,Iain;
 Mundy,Christopher J.; Plessl,Christian; Watkins,Matt;
 VandeVondele,Joost; Krack,Matthias; Hutter,Juerg. 
 The Journal of Chemical Physics, 152 (19), (2020). 
 CP2K: An electronic structure and molecular dynamics software package -
 Quickstep: Efficient and accurate electronic structure calculations.
 https://doi.org/10.1063/5.0007045

 Schuett, Ole; Messmer, Peter; Hutter, Juerg; VandeVondele, Joost. 
 Electronic Structure Calculations on Graphics Processing Units, John
 Wiley & Sons, Ltd, 173-190 (2016). 
 GPU-Accelerated Sparse Matrix-Matrix Multiplication for
 Linear Scaling Density Functional Theory.
 https://doi.org/10.1002/9781118670712.ch8

 Heinecke, A; Henry, G; Hutchinson, M; Pabst, H. 
 Proceedings of Intl. Supercomputing Conference, 981-991 (2016). 
 LIBXSMM: Accelerating Small Matrix Multiplications
 by Runtime Code Generation.
 https://doi.org/10.1109/SC.2016.83

 Borstnik, U; VandeVondele, J; Weber, V; Hutter, J. 
 PARALLEL COMPUTING, 40 (5-6), 47-58 (2014). 
 Sparse matrix multiplication: The distributed block-compressed sparse
 row library.
 https://doi.org/10.1016/j.parco.2014.03.012

 Hutter, J; Iannuzzi, M; Schiffmann, F; VandeVondele, J. 
 WIREs Comput Mol Sci., 4 (1), 15-25 (2014). 
 CP2K: atomistic simulations of condensed matter systems.
 https://doi.org/10.1002/wcms.1159

 Marek, A; Blum, V; Johanni, R; Havu, V; Lang, B; Auckenthaler, T;
 Heinecke, A; Bungartz, H; Lederer, H. 
 Journal of Physics: Condensed Matter, 26 (21), (2014). 
 The ELPA library: scalable parallel eigenvalue solutions for
 electronic structure
 theory and computational science.
 https://doi.org/10.1088/0953-8984/26/21/213201

 Krack, M. 
 THEORETICAL CHEMISTRY ACCOUNTS, 114 (1-3), 145-152 (2005). 
 Pseudopotentials for H to Kr optimized for gradient-corrected
 exchange-correlation functionals.
 https://doi.org/10.1007/s00214-005-0655-y

 VandeVondele, J; Krack, M; Mohamed, F; Parrinello, M; Chassaing, T;
 Hutter, J. COMPUTER PHYSICS COMMUNICATIONS, 167 (2), 103-128 (2005). 
 QUICKSTEP: Fast and accurate density functional calculations using a
 mixed Gaussian and plane waves approach.
 https://doi.org/10.1016/j.cpc.2004.12.014

 Frigo, M; Johnson, SG. 
 PROCEEDINGS OF THE IEEE, 93 (2), 216-231 (2005). 
 The design and implementation of FFTW3.
 https://doi.org/10.1109/JPROC.2004.840301

 VandeVondele, J; Hutter, J. 
 JOURNAL OF CHEMICAL PHYSICS, 118 (10), 4365-4369 (2003). 
 An efficient orbital transformation method for electronic structure
 calculations.
 https://doi.org/10.1063/1.1543154

 Hartwigsen, C; Goedecker, S; Hutter, J. 
 PHYSICAL REVIEW B, 58 (7), 3641-3662 (1998). 
 Relativistic separable dual-space Gaussian pseudopotentials from H to Rn.
 https://doi.org/10.1103/PhysRevB.58.3641

 Lippert, G; Hutter, J; Parrinello, M. 
 MOLECULAR PHYSICS, 92 (3), 477-487 (1997). 
 A hybrid Gaussian and plane wave density functional scheme.
 https://doi.org/10.1080/002689797170220

 Goedecker, S; Teter, M; Hutter, J. 
 PHYSICAL REVIEW B, 54 (3), 1703-1710 (1996). 
 Separable dual-space Gaussian pseudopotentials.
 https://doi.org/10.1103/PhysRevB.54.1703

 BECKE, AD. PHYSICAL REVIEW A, 38 (6), 3098-3100 (1988). 
 DENSITY-FUNCTIONAL EXCHANGE-ENERGY APPROXIMATION WITH CORRECT
 ASYMPTOTIC-BEHAVIOR.
 https://doi.org/10.1103/PhysRevA.38.3098

 LEE, CT; YANG, WT; PARR, RG. 
 PHYSICAL REVIEW B, 37 (2), 785-789 (1988). 
 DEVELOPMENT OF THE COLLE-SALVETTI CORRELATION-ENERGY FORMULA INTO A
 FUNCTIONAL OF THE ELECTRON-DENSITY.
 https://doi.org/10.1103/PhysRevB.37.785


 -------------------------------------------------------------------------------
 -                                                                             -
 -                                T I M I N G                                  -
 -                                                                             -
 -------------------------------------------------------------------------------
 SUBROUTINE                       CALLS  ASD         SELF TIME        TOTAL TIME
                                MAXIMUM       AVERAGE  MAXIMUM  AVERAGE  MAXIMUM
 CP2K                                 1  1.0    0.008    0.008   17.410   17.410
 qs_forces                            1  2.0    0.000    0.000   17.350   17.350
 qs_energies                          1  3.0    0.000    0.000   16.846   16.846
 scf_env_do_scf                       1  4.0    0.000    0.000   16.782   16.782
 scf_env_do_scf_inner_loop           31  5.0    0.002    0.002   16.246   16.246
 rebuild_ks_matrix                   32  6.9    0.000    0.000   16.079   16.079
 qs_ks_build_kohn_sham_matrix        32  7.9    0.003    0.003   16.079   16.079
 qs_ks_update_qs_env                 32  6.0    0.000    0.000   15.576   15.576
 xc_vxc_pw_create                    96  9.9    0.374    0.374   12.663   12.663
 low_spin_roks                       32  8.9    0.035    0.035   11.134   11.134
 pw_transfer                       3169 11.9    0.142    0.142    9.162    9.162
 fft_wrap_pw1pw2                   3105 12.9    0.018    0.018    8.998    8.998
 fft_wrap_pw1pw2_170               1953 14.3    0.509    0.509    8.682    8.682
 xc_rho_set_and_dset_create          96 10.9    0.792    0.792    7.867    7.867
 xc_pw_derive                      1152 11.9    0.006    0.006    6.413    6.413
 fft3d_s                           3106 14.9    4.908    4.908    4.919    4.919
 xc_pw_divergence                   192 10.9    0.002    0.002    4.188    4.188
 qs_vxc_create                       32  8.9    0.000    0.000    4.157    4.157
 xc_functional_eval                 192 11.9    0.001    0.001    3.597    3.597
 lyp_lsd_eval                        96 12.9    2.894    2.894    2.894    2.894
 calculate_rho_elec                 192  8.9    0.046    0.046    2.464    2.464
 density_rs2pw                      192  9.9    0.004    0.004    2.123    2.123
 pw_scatter_s                      1568 15.1    2.020    2.020    2.020    2.020
 pw_gather_s                       1537 14.8    1.509    1.509    1.509    1.509
 integrate_v_rspace                 192  9.9    0.004    0.004    1.363    1.363
 potential_pw2rs                    192 10.9    0.006    0.006    1.154    1.154
 pw_derive                         1152 12.9    0.910    0.910    0.910    0.910
 qs_rho_update_rho_low               32  6.0    0.000    0.000    0.870    0.870
 xb88_lsd_eval                       96 12.9    0.701    0.701    0.701    0.701
 init_scf_loop                        1  5.0    0.000    0.000    0.536    0.536
 pw_copy                           1825 12.1    0.516    0.516    0.516    0.516
 qs_ks_update_qs_env_forces           1  3.0    0.000    0.000    0.503    0.503
 sum_up_and_integrate                32  8.9    0.034    0.034    0.488    0.488
 pw_axpy                           2177 11.2    0.450    0.450    0.450    0.450
 dbcsr_multiply_generic            1406 10.8    0.025    0.025    0.392    0.392
 qs_scf_new_mos                      31  6.0    0.000    0.000    0.368    0.368
 qs_scf_loop_do_ot                   31  7.0    0.000    0.000    0.368    0.368
 ot_scf_mini                         31  8.0    0.000    0.000    0.352    0.352
 -------------------------------------------------------------------------------

 The number of warnings for this run is : 0
 
 -------------------------------------------------------------------------------
  **** **** ******  **  PROGRAM ENDED AT                 2022-12-12 18:15:19.638
 ***** ** ***  *** **   PROGRAM RAN ON                           xissand-MS-7A34
 **    ****   ******    PROGRAM RAN BY                                         j
 ***** **    ** ** **   PROGRAM PROCESS ID                                101028
  **** **  *******  **  PROGRAM STOPPED IN     /home/j/Study/QMComp/HW/3_cp2k/T1
