 DBCSR| CPU Multiplication driver                                           XSMM
 DBCSR| Multrec recursion limit                                              512
 DBCSR| Multiplication stack size                                           1000
 DBCSR| Maximum elements for images                                    UNLIMITED
 DBCSR| Multiplicative factor virtual images                                   1
 DBCSR| Use multiplication densification                                       T
 DBCSR| Multiplication size stacks                                             3
 DBCSR| Use memory pool for CPU allocation                                     F
 DBCSR| Number of 3D layers                                               SINGLE
 DBCSR| Use MPI memory allocation                                              F
 DBCSR| Use RMA algorithm                                                      F
 DBCSR| Use Communication thread                                               T
 DBCSR| Communication thread load                                             87
 DBCSR| MPI: My node id                                                        0
 DBCSR| MPI: Number of nodes                                                   1
 DBCSR| OMP: Current number of threads                                         1
 DBCSR| OMP: Max number of threads                                             1
 DBCSR| Split modifier for TAS multiplication algorithm                  1.0E+00


  **** **** ******  **  PROGRAM STARTED AT               2022-12-12 18:07:21.681
 ***** ** ***  *** **   PROGRAM STARTED ON                       xissand-MS-7A34
 **    ****   ******    PROGRAM STARTED BY                                     j
 ***** **    ** ** **   PROGRAM PROCESS ID                                 99052
  **** **  *******  **  PROGRAM STARTED IN     /home/j/Study/QMComp/HW/3_cp2k/T1

 CP2K| version string:                 CP2K version 2022.1 (Development Version)
 CP2K| source code revision number:                                  git:a213519
 CP2K| cp2kflags: omp fftw3 libxc elpa parallel mpi3 scalapack cosma xsmm spglib
 CP2K|             sirius libvori libbqb libvdwxc
 CP2K| is freely available from                            https://www.cp2k.org/
 CP2K| Program compiled at                       Tue Nov  8 04:05:17 PM MSK 2022
 CP2K| Program compiled on                                       xissand-MS-7A34
 CP2K| Program compiled for                                                local
 CP2K| Data directory path                          /home/j/Study/cp2k/cp2k/data
 CP2K| Input file name                                                  cp2k.inp

 GLOBAL| Force Environment number                                              1
 GLOBAL| Basis set file name                                           BASIS_SET
 GLOBAL| Potential file name                                      GTH_POTENTIALS
 GLOBAL| MM Potential file name                                     MM_POTENTIAL
 GLOBAL| Coordinate file name                                      __STD_INPUT__
 GLOBAL| Method name                                                        CP2K
 GLOBAL| Project name                                                 H2_08_1600
 GLOBAL| Run type                                                   ENERGY_FORCE
 GLOBAL| FFT library                                                       FFTW3
 GLOBAL| Diagonalization library                                            ELPA
 GLOBAL| DGEMM library                                                      BLAS
 GLOBAL| Minimum number of eigenvectors for ELPA usage                        16
 GLOBAL| Orthonormality check for eigenvectors                          DISABLED
 GLOBAL| Matrix multiplication library                                     COSMA
 GLOBAL| All-to-all communication in single precision                          F
 GLOBAL| FFTs using library dependent lengths                                  F
 GLOBAL| Grid backend                                                       AUTO
 GLOBAL| Global print level                                                  LOW
 GLOBAL| MPI I/O enabled                                                       T
 GLOBAL| Total number of message passing processes                             1
 GLOBAL| Number of threads for this process                                    1
 GLOBAL| This output is from process                                           0
 GLOBAL| Stack size for threads created by OpenMP (OMP_STACKSIZE)        default
 GLOBAL| CPU model name                    AMD Ryzen 5 1500X Quad-Core Processor
 GLOBAL| CPUID                                                              1002
 GLOBAL| Compiled for CPUID                                                    0

 *** HINT in environment.F:884 :: The compiler target flags (generic) used ***
 *** to build this binary cannot exploit all extensions of this CPU model  ***
 *** (x86_avx2). Consider compiler target flags as part of FCFLAGS and     ***
 *** CFLAGS (ARCH file).                                                   ***


 MEMORY| system memory details [Kb]
 MEMORY|                        rank 0           min           max       average
 MEMORY| MemTotal             16331996      16331996      16331996      16331996
 MEMORY| MemFree               5942292       5942292       5942292       5942292
 MEMORY| Buffers               1152452       1152452       1152452       1152452
 MEMORY| Cached                4249984       4249984       4249984       4249984
 MEMORY| Slab                   801196        801196        801196        801196
 MEMORY| SReclaimable           628084        628084        628084        628084
 MEMORY| MemLikelyFree        11972812      11972812      11972812      11972812


 GENERATE|  Preliminary Number of Bonds generated:                             0
 GENERATE|  Achieved consistency in connectivity generation.

 *******************************************************************************
 *******************************************************************************
 **                                                                           **
 **     #####                         ##              ##                      **
 **    ##   ##            ##          ##              ##                      **
 **   ##     ##                       ##            ######                    **
 **   ##     ##  ##   ##  ##   #####  ##  ##   ####   ##    #####    #####    **
 **   ##     ##  ##   ##  ##  ##      ## ##   ##      ##   ##   ##  ##   ##   **
 **   ##  ## ##  ##   ##  ##  ##      ####     ###    ##   ######   ######    **
 **    ##  ###   ##   ##  ##  ##      ## ##      ##   ##   ##       ##        **
 **     #######   #####   ##   #####  ##  ##  ####    ##    #####   ##        **
 **           ##                                                    ##        **
 **                                                                           **
 **                                                ... make the atoms dance   **
 **                                                                           **
 **            Copyright (C) by CP2K developers group (2000-2022)             **
 **                      J. Chem. Phys. 152, 194103 (2020)                    **
 **                                                                           **
 *******************************************************************************
 
  **************************************
  restricted calculation cutting corners
  experimental feature, check code      
  **************************************


 TOTAL NUMBERS AND MAXIMUM NUMBERS

  Total number of            - Atomic kinds:                                   1
                             - Atoms:                                          2
                             - Shell sets:                                     4
                             - Shells:                                         6
                             - Primitive Cartesian functions:                 10
                             - Cartesian basis functions:                     10
                             - Spherical basis functions:                     10

  Maximum angular momentum of- Orbital basis functions:                        1
                             - Local part of the GTH pseudopotential:          2


 SCF PARAMETERS         Density guess:                                    ATOMIC
                        --------------------------------------------------------
                        max_scf:                                             400
                        max_scf_history:                                       0
                        max_diis:                                              4
                        --------------------------------------------------------
                        eps_scf:                                        1.00E-06
                        eps_scf_history:                                0.00E+00
                        eps_diis:                                       1.00E-01
                        eps_eigval:                                     1.00E-05
                        --------------------------------------------------------
                        level_shift [a.u.]:                             0.000000
                        --------------------------------------------------------
                        No outer SCF

 Spin 1

 Number of electrons:                                                          2
 Number of occupied orbitals:                                                  2
 Number of molecular orbitals:                                                 2

 Spin 2

 Number of electrons:                                                          0
 Number of occupied orbitals:                                                  0
 Number of molecular orbitals:                                                 0

 Number of orbital functions:                                                 10
 Number of independent orbital functions:                                     10

 Extrapolation method: initial_guess


 SCF WAVEFUNCTION OPTIMIZATION

  ----------------------------------- OT ---------------------------------------
  Allowing for rotations 
  Minimizer      : DIIS                : direct inversion
                                         in the iterative subspace
                                         using   7 DIIS vectors
                                         safer DIIS on
  Preconditioner : FULL_SINGLE         : diagonalization based
  Precond_solver : DEFAULT
  stepsize       :    0.15000000                  energy_gap     :    0.20000000
  eps_taylor     :   0.10000E-15                  max_taylor     :             4
  ----------------------------------- OT ---------------------------------------

  Step     Update method      Time    Convergence         Total energy    Change
  ------------------------------------------------------------------------------
     1 OT DIIS     0.15E+00    0.6     0.08514222        -0.7489366612 -7.49E-01
     2 OT DIIS     0.15E+00    0.6     0.06618432        -0.7681935918 -1.93E-02
     3 OT DIIS     0.15E+00    0.6     0.03532361        -0.7960878845 -2.79E-02
     4 OT SD       0.15E+00    0.6     0.05410676        -0.8066352220 -1.05E-02
     5 OT SD       0.15E+00    0.6     0.05003305        -0.8149956756 -8.36E-03
     6 OT SD       0.15E+00    0.6     0.04956447        -0.8224135126 -7.42E-03
     7 OT SD       0.15E+00    0.5     0.04983975        -0.8298059068 -7.39E-03
     8 OT SD       0.15E+00    0.6     0.04964466        -0.8372429159 -7.44E-03
     9 OT DIIS     0.15E+00    0.6     0.04899198        -0.8445923121 -7.35E-03
    10 OT DIIS     0.15E+00    0.6     0.04977758        -0.8728828971 -2.83E-02
    11 OT DIIS     0.15E+00    0.6     0.15445437        -0.7572843976  1.16E-01
    12 OT SD       0.15E+00    0.6     0.14769371        -0.7797071395 -2.24E-02
    13 OT DIIS     0.15E+00    0.6     0.10280840        -0.8350787112 -5.54E-02
    14 OT DIIS     0.15E+00    0.6     0.06310277        -0.8675633190 -3.25E-02
    15 OT DIIS     0.15E+00    0.6     0.05452798        -0.8730756439 -5.51E-03
    16 OT DIIS     0.15E+00    0.6     0.02355818        -0.8946930931 -2.16E-02
    17 OT SD       0.15E+00    0.6     0.02318114        -0.8948268940 -1.34E-04
    18 OT DIIS     0.15E+00    0.6     0.01386616        -0.8961101465 -1.28E-03
    19 OT DIIS     0.15E+00    0.6     0.01700588        -0.8947316905  1.38E-03
    20 OT DIIS     0.15E+00    0.6     0.00482859        -0.8968308903 -2.10E-03
    21 OT DIIS     0.15E+00    0.6     0.01538498        -0.8955015763  1.33E-03
    22 OT DIIS     0.15E+00    0.7     0.00417769        -0.8968109454 -1.31E-03
    23 OT DIIS     0.15E+00    0.6     0.00110371        -0.8969109823 -1.00E-04
    24 OT DIIS     0.15E+00    0.6     0.00077877        -0.8969148519 -3.87E-06
    25 OT DIIS     0.15E+00    0.6     0.00018403        -0.8969188231 -3.97E-06
    26 OT DIIS     0.15E+00    0.6     0.00009047        -0.8969190033 -1.80E-07
    27 OT DIIS     0.15E+00    0.6     0.00001772        -0.8969190387 -3.55E-08
    28 OT DIIS     0.15E+00    0.6     0.00003704        -0.8969190339  4.88E-09
    29 OT DIIS     0.15E+00    0.6     0.00000445        -0.8969190399 -6.06E-09
    30 OT DIIS     0.15E+00    0.6     0.00000150        -0.8969190400 -1.20E-10
    31 OT DIIS     0.15E+00    0.6     0.00000040        -0.8969190400 -6.53E-12

  *** SCF run converged in    31 steps ***


  Electronic density on regular grids:         -1.9999999997        0.0000000003
  Core density on regular grids:                1.9999999999       -0.0000000001
  Total charge density on r-space grids:        0.0000000001
  Total charge density g-space grids:           0.0000000001

  Overlap energy of the core charge distribution:               0.00000000000001
  Self energy of the core charge distribution:                 -2.82094791773878
  Core Hamiltonian energy:                                      1.10371150740530
  Hartree energy:                                               1.49538414702467
  Exchange-correlation energy:                                 -0.67506677672652

  Total energy:                                                -0.89691904003533

  Integrated absolute spin density  :                               1.9999999997
  Ideal and single determinant S**2 :                    2.000000       2.000000

 ENERGY| Total FORCE_EVAL ( QS ) energy [a.u.]:               -0.896919040035930

 -------------------------------------------------------------------------------
 -                                                                             -
 -                                DBCSR STATISTICS                             -
 -                                                                             -
 -------------------------------------------------------------------------------
 COUNTER                                    TOTAL       BLAS       SMM       ACC
 flops     2 x     2 x     2                10496      23.8%     76.2%      0.0%
 flops     2 x     2 x    10                12400       0.0%    100.0%      0.0%
 flops    10 x     2 x    10                12800       0.0%    100.0%      0.0%
 flops    10 x     2 x     2                14800       0.0%    100.0%      0.0%
 flops     5 x     5 x     2                48300       0.0%    100.0%      0.0%
 flops     5 x     2 x     5                78400       0.0%    100.0%      0.0%
 flops inhomo. stacks                           0       0.0%      0.0%      0.0%
 flops total                       177.196000E+03       1.4%     98.6%      0.0%
 flops max/rank                    177.196000E+03       1.4%     98.6%      0.0%
 matmuls inhomo. stacks                         0       0.0%      0.0%      0.0%
 matmuls total                               2295       6.8%     93.2%      0.0%
 number of processed stacks                  1385      11.3%     88.7%      0.0%
 average stack size                                     1.0       1.7       0.0
 marketing flops                   193.376000E+03
 -------------------------------------------------------------------------------
 # multiplications                           1449
 max memory usage/rank             273.477632E+06
 # max total images/rank                        1
 # max 3D layers                                1
 # MPI messages exchanged                       0
 -------------------------------------------------------------------------------
 -                                                                             -
 -                      DBCSR MESSAGE PASSING PERFORMANCE                      -
 -                                                                             -
 -------------------------------------------------------------------------------
 ROUTINE             CALLS      AVE VOLUME [Bytes]
 MP_Bcast                7                     12.
 MP_Allreduce         7558                      8.
 MP_Alltoall          6537                     34.
 MP_ISend             5604                     33.
 MP_IRecv             5604                     33.
 -------------------------------------------------------------------------------

 -------------------------------------------------------------------------------
 -                                                                             -
 -                                DBM STATISTICS                               -
 -                                                                             -
 -------------------------------------------------------------------------------
    M  x    N  x    K                                          COUNT     PERCENT
 -------------------------------------------------------------------------------

 -------------------------------------------------------------------------------
 -                                                                             -
 -                                GRID STATISTICS                              -
 -                                                                             -
 -------------------------------------------------------------------------------
 LP    KERNEL             BACKEND                              COUNT     PERCENT
 0     collocate ortho    REF                                  35712      35.77%
 0     integrate ortho    REF                                  34596      34.65%
 1     integrate ortho    REF                                  14136      14.16%
 1     collocate ortho    REF                                  13440      13.46%
 2     integrate ortho    REF                                   1164       1.17%
 2     collocate ortho    REF                                    768       0.77%
 3     integrate ortho    REF                                     24       0.02%
 0     collocate general  REF                                      2       0.00%
 1     integrate general  REF                                      2       0.00%
 -------------------------------------------------------------------------------

 MEMORY| Estimated peak process memory [MiB]                                 261

 -------------------------------------------------------------------------------
 -                                                                             -
 -                         MESSAGE PASSING PERFORMANCE                         -
 -                                                                             -
 -------------------------------------------------------------------------------

 ROUTINE             CALLS      AVE VOLUME [Bytes]
 MP_Group                4
 MP_Bcast              184                   1477.
 MP_Allreduce         1067                      9.
 MP_Sync                17
 -------------------------------------------------------------------------------


 -------------------------------------------------------------------------------
 -                                                                             -
 -                           R E F E R E N C E S                               -
 -                                                                             -
 -------------------------------------------------------------------------------
 
 CP2K version 2022.1 (Development Version), the CP2K developers group (2022).
 CP2K is freely available from https://www.cp2k.org/ .

 Kuehne,Thomas D.; Iannuzzi,Marcella; Del Ben,Mauro;
 Rybkin,Vladimir V.; Seewald,Patrick; Stein,Frederick; Laino,Teodoro;
 Khaliullin,Rustam Z.; Schuett,Ole; Schiffmann,Florian; Golze,Dorothea;
 Wilhelm,Jan; Chulkov,Sergey; Bani-Hashemian,Mohammad Hossein;
 Weber,Valery; Borstnik,Urban; Taillefumier,Mathieu;
 Jakobovits,Alice Shoshana; Lazzaro,Alfio; Pabst,Hans; Mueller,Tiziano;
 Schade,Robert; Guidon,Manuel; Andermatt,Samuel; Holmberg,Nico;
 Schenter,Gregory K.; Hehn,Anna; Bussy,Augustin; Belleflamme,Fabian;
 Tabacchi,Gloria; Gloess,Andreas; Lass,Michael; Bethune,Iain;
 Mundy,Christopher J.; Plessl,Christian; Watkins,Matt;
 VandeVondele,Joost; Krack,Matthias; Hutter,Juerg. 
 The Journal of Chemical Physics, 152 (19), (2020). 
 CP2K: An electronic structure and molecular dynamics software package -
 Quickstep: Efficient and accurate electronic structure calculations.
 https://doi.org/10.1063/5.0007045

 Schuett, Ole; Messmer, Peter; Hutter, Juerg; VandeVondele, Joost. 
 Electronic Structure Calculations on Graphics Processing Units, John
 Wiley & Sons, Ltd, 173-190 (2016). 
 GPU-Accelerated Sparse Matrix-Matrix Multiplication for
 Linear Scaling Density Functional Theory.
 https://doi.org/10.1002/9781118670712.ch8

 Heinecke, A; Henry, G; Hutchinson, M; Pabst, H. 
 Proceedings of Intl. Supercomputing Conference, 981-991 (2016). 
 LIBXSMM: Accelerating Small Matrix Multiplications
 by Runtime Code Generation.
 https://doi.org/10.1109/SC.2016.83

 Borstnik, U; VandeVondele, J; Weber, V; Hutter, J. 
 PARALLEL COMPUTING, 40 (5-6), 47-58 (2014). 
 Sparse matrix multiplication: The distributed block-compressed sparse
 row library.
 https://doi.org/10.1016/j.parco.2014.03.012

 Hutter, J; Iannuzzi, M; Schiffmann, F; VandeVondele, J. 
 WIREs Comput Mol Sci., 4 (1), 15-25 (2014). 
 CP2K: atomistic simulations of condensed matter systems.
 https://doi.org/10.1002/wcms.1159

 Marek, A; Blum, V; Johanni, R; Havu, V; Lang, B; Auckenthaler, T;
 Heinecke, A; Bungartz, H; Lederer, H. 
 Journal of Physics: Condensed Matter, 26 (21), (2014). 
 The ELPA library: scalable parallel eigenvalue solutions for
 electronic structure
 theory and computational science.
 https://doi.org/10.1088/0953-8984/26/21/213201

 Krack, M. 
 THEORETICAL CHEMISTRY ACCOUNTS, 114 (1-3), 145-152 (2005). 
 Pseudopotentials for H to Kr optimized for gradient-corrected
 exchange-correlation functionals.
 https://doi.org/10.1007/s00214-005-0655-y

 VandeVondele, J; Krack, M; Mohamed, F; Parrinello, M; Chassaing, T;
 Hutter, J. COMPUTER PHYSICS COMMUNICATIONS, 167 (2), 103-128 (2005). 
 QUICKSTEP: Fast and accurate density functional calculations using a
 mixed Gaussian and plane waves approach.
 https://doi.org/10.1016/j.cpc.2004.12.014

 Frigo, M; Johnson, SG. 
 PROCEEDINGS OF THE IEEE, 93 (2), 216-231 (2005). 
 The design and implementation of FFTW3.
 https://doi.org/10.1109/JPROC.2004.840301

 VandeVondele, J; Hutter, J. 
 JOURNAL OF CHEMICAL PHYSICS, 118 (10), 4365-4369 (2003). 
 An efficient orbital transformation method for electronic structure
 calculations.
 https://doi.org/10.1063/1.1543154

 Hartwigsen, C; Goedecker, S; Hutter, J. 
 PHYSICAL REVIEW B, 58 (7), 3641-3662 (1998). 
 Relativistic separable dual-space Gaussian pseudopotentials from H to Rn.
 https://doi.org/10.1103/PhysRevB.58.3641

 Lippert, G; Hutter, J; Parrinello, M. 
 MOLECULAR PHYSICS, 92 (3), 477-487 (1997). 
 A hybrid Gaussian and plane wave density functional scheme.
 https://doi.org/10.1080/002689797170220

 Goedecker, S; Teter, M; Hutter, J. 
 PHYSICAL REVIEW B, 54 (3), 1703-1710 (1996). 
 Separable dual-space Gaussian pseudopotentials.
 https://doi.org/10.1103/PhysRevB.54.1703

 BECKE, AD. PHYSICAL REVIEW A, 38 (6), 3098-3100 (1988). 
 DENSITY-FUNCTIONAL EXCHANGE-ENERGY APPROXIMATION WITH CORRECT
 ASYMPTOTIC-BEHAVIOR.
 https://doi.org/10.1103/PhysRevA.38.3098

 LEE, CT; YANG, WT; PARR, RG. 
 PHYSICAL REVIEW B, 37 (2), 785-789 (1988). 
 DEVELOPMENT OF THE COLLE-SALVETTI CORRELATION-ENERGY FORMULA INTO A
 FUNCTIONAL OF THE ELECTRON-DENSITY.
 https://doi.org/10.1103/PhysRevB.37.785


 -------------------------------------------------------------------------------
 -                                                                             -
 -                                T I M I N G                                  -
 -                                                                             -
 -------------------------------------------------------------------------------
 SUBROUTINE                       CALLS  ASD         SELF TIME        TOTAL TIME
                                MAXIMUM       AVERAGE  MAXIMUM  AVERAGE  MAXIMUM
 CP2K                                 1  1.0    0.008    0.008   19.018   19.018
 qs_forces                            1  2.0    0.000    0.000   18.956   18.956
 qs_energies                          1  3.0    0.000    0.000   18.427   18.427
 scf_env_do_scf                       1  4.0    0.000    0.000   18.363   18.363
 scf_env_do_scf_inner_loop           31  5.0    0.002    0.002   17.801   17.801
 rebuild_ks_matrix                   32  6.9    0.000    0.000   17.568   17.568
 qs_ks_build_kohn_sham_matrix        32  7.9    0.004    0.004   17.567   17.567
 qs_ks_update_qs_env                 32  6.0    0.000    0.000   17.040   17.040
 xc_vxc_pw_create                    96  9.9    0.398    0.398   13.843   13.843
 low_spin_roks                       32  8.9    0.037    0.037   12.152   12.152
 pw_transfer                       3169 11.9    0.155    0.155   10.149   10.149
 fft_wrap_pw1pw2                   3105 12.9    0.019    0.019    9.970    9.970
 fft_wrap_pw1pw2_170               1953 14.3    0.553    0.553    9.641    9.641
 xc_rho_set_and_dset_create          96 10.9    0.848    0.848    8.521    8.521
 xc_pw_derive                      1152 11.9    0.006    0.006    7.081    7.081
 fft3d_s                           3106 14.9    5.419    5.419    5.431    5.431
 xc_pw_divergence                   192 10.9    0.003    0.003    4.669    4.669
 qs_vxc_create                       32  8.9    0.000    0.000    4.567    4.567
 xc_functional_eval                 192 11.9    0.002    0.002    3.872    3.872
 lyp_lsd_eval                        96 12.9    3.138    3.138    3.138    3.138
 calculate_rho_elec                 192  8.9    0.048    0.048    2.690    2.690
 density_rs2pw                      192  9.9    0.005    0.005    2.310    2.310
 pw_scatter_s                      1568 15.1    2.201    2.201    2.201    2.201
 pw_gather_s                       1537 14.8    1.742    1.742    1.742    1.742
 integrate_v_rspace                 192  9.9    0.004    0.004    1.498    1.498
 potential_pw2rs                    192 10.9    0.007    0.007    1.263    1.263
 pw_derive                         1152 12.9    0.983    0.983    0.983    0.983
 qs_rho_update_rho_low               32  6.0    0.000    0.000    0.951    0.951
 xb88_lsd_eval                       96 12.9    0.732    0.732    0.732    0.732
 init_scf_loop                        1  5.0    0.000    0.000    0.561    0.561
 pw_copy                           1825 12.1    0.538    0.538    0.538    0.538
 qs_ks_update_qs_env_forces           1  3.0    0.000    0.000    0.528    0.528
 sum_up_and_integrate                32  8.9    0.036    0.036    0.528    0.528
 pw_axpy                           2177 11.2    0.481    0.481    0.481    0.481
 dbcsr_multiply_generic            1449 10.8    0.027    0.027    0.425    0.425
 qs_scf_new_mos                      31  6.0    0.000    0.000    0.403    0.403
 qs_scf_loop_do_ot                   31  7.0    0.000    0.000    0.403    0.403
 ot_scf_mini                         31  8.0    0.000    0.000    0.387    0.387
 -------------------------------------------------------------------------------

 The number of warnings for this run is : 0
 
 -------------------------------------------------------------------------------
  **** **** ******  **  PROGRAM ENDED AT                 2022-12-12 18:07:41.220
 ***** ** ***  *** **   PROGRAM RAN ON                           xissand-MS-7A34
 **    ****   ******    PROGRAM RAN BY                                         j
 ***** **    ** ** **   PROGRAM PROCESS ID                                 99052
  **** **  *******  **  PROGRAM STOPPED IN     /home/j/Study/QMComp/HW/3_cp2k/T1
