 DBCSR| CPU Multiplication driver                                           XSMM
 DBCSR| Multrec recursion limit                                              512
 DBCSR| Multiplication stack size                                           1000
 DBCSR| Maximum elements for images                                    UNLIMITED
 DBCSR| Multiplicative factor virtual images                                   1
 DBCSR| Use multiplication densification                                       T
 DBCSR| Multiplication size stacks                                             3
 DBCSR| Use memory pool for CPU allocation                                     F
 DBCSR| Number of 3D layers                                               SINGLE
 DBCSR| Use MPI memory allocation                                              F
 DBCSR| Use RMA algorithm                                                      F
 DBCSR| Use Communication thread                                               T
 DBCSR| Communication thread load                                             87
 DBCSR| MPI: My node id                                                        0
 DBCSR| MPI: Number of nodes                                                   1
 DBCSR| OMP: Current number of threads                                         1
 DBCSR| OMP: Max number of threads                                             1
 DBCSR| Split modifier for TAS multiplication algorithm                  1.0E+00


  **** **** ******  **  PROGRAM STARTED AT               2022-12-12 18:08:17.920
 ***** ** ***  *** **   PROGRAM STARTED ON                       xissand-MS-7A34
 **    ****   ******    PROGRAM STARTED BY                                     j
 ***** **    ** ** **   PROGRAM PROCESS ID                                 99319
  **** **  *******  **  PROGRAM STARTED IN     /home/j/Study/QMComp/HW/3_cp2k/T1

 CP2K| version string:                 CP2K version 2022.1 (Development Version)
 CP2K| source code revision number:                                  git:a213519
 CP2K| cp2kflags: omp fftw3 libxc elpa parallel mpi3 scalapack cosma xsmm spglib
 CP2K|             sirius libvori libbqb libvdwxc
 CP2K| is freely available from                            https://www.cp2k.org/
 CP2K| Program compiled at                       Tue Nov  8 04:05:17 PM MSK 2022
 CP2K| Program compiled on                                       xissand-MS-7A34
 CP2K| Program compiled for                                                local
 CP2K| Data directory path                          /home/j/Study/cp2k/cp2k/data
 CP2K| Input file name                                                  cp2k.inp

 GLOBAL| Force Environment number                                              1
 GLOBAL| Basis set file name                                           BASIS_SET
 GLOBAL| Potential file name                                      GTH_POTENTIALS
 GLOBAL| MM Potential file name                                     MM_POTENTIAL
 GLOBAL| Coordinate file name                                      __STD_INPUT__
 GLOBAL| Method name                                                        CP2K
 GLOBAL| Project name                                                 H2_08_1600
 GLOBAL| Run type                                                   ENERGY_FORCE
 GLOBAL| FFT library                                                       FFTW3
 GLOBAL| Diagonalization library                                            ELPA
 GLOBAL| DGEMM library                                                      BLAS
 GLOBAL| Minimum number of eigenvectors for ELPA usage                        16
 GLOBAL| Orthonormality check for eigenvectors                          DISABLED
 GLOBAL| Matrix multiplication library                                     COSMA
 GLOBAL| All-to-all communication in single precision                          F
 GLOBAL| FFTs using library dependent lengths                                  F
 GLOBAL| Grid backend                                                       AUTO
 GLOBAL| Global print level                                                  LOW
 GLOBAL| MPI I/O enabled                                                       T
 GLOBAL| Total number of message passing processes                             1
 GLOBAL| Number of threads for this process                                    1
 GLOBAL| This output is from process                                           0
 GLOBAL| Stack size for threads created by OpenMP (OMP_STACKSIZE)        default
 GLOBAL| CPU model name                    AMD Ryzen 5 1500X Quad-Core Processor
 GLOBAL| CPUID                                                              1002
 GLOBAL| Compiled for CPUID                                                    0

 *** HINT in environment.F:884 :: The compiler target flags (generic) used ***
 *** to build this binary cannot exploit all extensions of this CPU model  ***
 *** (x86_avx2). Consider compiler target flags as part of FCFLAGS and     ***
 *** CFLAGS (ARCH file).                                                   ***


 MEMORY| system memory details [Kb]
 MEMORY|                        rank 0           min           max       average
 MEMORY| MemTotal             16331996      16331996      16331996      16331996
 MEMORY| MemFree               5904420       5904420       5904420       5904420
 MEMORY| Buffers               1152784       1152784       1152784       1152784
 MEMORY| Cached                4250076       4250076       4250076       4250076
 MEMORY| Slab                   801732        801732        801732        801732
 MEMORY| SReclaimable           628124        628124        628124        628124
 MEMORY| MemLikelyFree        11935404      11935404      11935404      11935404


 GENERATE|  Preliminary Number of Bonds generated:                             0
 GENERATE|  Achieved consistency in connectivity generation.

 *******************************************************************************
 *******************************************************************************
 **                                                                           **
 **     #####                         ##              ##                      **
 **    ##   ##            ##          ##              ##                      **
 **   ##     ##                       ##            ######                    **
 **   ##     ##  ##   ##  ##   #####  ##  ##   ####   ##    #####    #####    **
 **   ##     ##  ##   ##  ##  ##      ## ##   ##      ##   ##   ##  ##   ##   **
 **   ##  ## ##  ##   ##  ##  ##      ####     ###    ##   ######   ######    **
 **    ##  ###   ##   ##  ##  ##      ## ##      ##   ##   ##       ##        **
 **     #######   #####   ##   #####  ##  ##  ####    ##    #####   ##        **
 **           ##                                                    ##        **
 **                                                                           **
 **                                                ... make the atoms dance   **
 **                                                                           **
 **            Copyright (C) by CP2K developers group (2000-2022)             **
 **                      J. Chem. Phys. 152, 194103 (2020)                    **
 **                                                                           **
 *******************************************************************************
 
  **************************************
  restricted calculation cutting corners
  experimental feature, check code      
  **************************************


 TOTAL NUMBERS AND MAXIMUM NUMBERS

  Total number of            - Atomic kinds:                                   1
                             - Atoms:                                          2
                             - Shell sets:                                     4
                             - Shells:                                         6
                             - Primitive Cartesian functions:                 10
                             - Cartesian basis functions:                     10
                             - Spherical basis functions:                     10

  Maximum angular momentum of- Orbital basis functions:                        1
                             - Local part of the GTH pseudopotential:          2


 SCF PARAMETERS         Density guess:                                    ATOMIC
                        --------------------------------------------------------
                        max_scf:                                             400
                        max_scf_history:                                       0
                        max_diis:                                              4
                        --------------------------------------------------------
                        eps_scf:                                        1.00E-06
                        eps_scf_history:                                0.00E+00
                        eps_diis:                                       1.00E-01
                        eps_eigval:                                     1.00E-05
                        --------------------------------------------------------
                        level_shift [a.u.]:                             0.000000
                        --------------------------------------------------------
                        No outer SCF

 Spin 1

 Number of electrons:                                                          2
 Number of occupied orbitals:                                                  2
 Number of molecular orbitals:                                                 2

 Spin 2

 Number of electrons:                                                          0
 Number of occupied orbitals:                                                  0
 Number of molecular orbitals:                                                 0

 Number of orbital functions:                                                 10
 Number of independent orbital functions:                                     10

 Extrapolation method: initial_guess


 SCF WAVEFUNCTION OPTIMIZATION

  ----------------------------------- OT ---------------------------------------
  Allowing for rotations 
  Minimizer      : DIIS                : direct inversion
                                         in the iterative subspace
                                         using   7 DIIS vectors
                                         safer DIIS on
  Preconditioner : FULL_SINGLE         : diagonalization based
  Precond_solver : DEFAULT
  stepsize       :    0.15000000                  energy_gap     :    0.20000000
  eps_taylor     :   0.10000E-15                  max_taylor     :             4
  ----------------------------------- OT ---------------------------------------

  Step     Update method      Time    Convergence         Total energy    Change
  ------------------------------------------------------------------------------
     1 OT DIIS     0.15E+00    0.6     0.06426865        -0.7820287903 -7.82E-01
     2 OT DIIS     0.15E+00    0.6     0.05045527        -0.7930375145 -1.10E-02
     3 OT DIIS     0.15E+00    0.6     0.03084678        -0.8102055755 -1.72E-02
     4 OT SD       0.15E+00    0.6     0.03752205        -0.8158002263 -5.59E-03
     5 OT SD       0.15E+00    0.6     0.04019487        -0.8201678350 -4.37E-03
     6 OT SD       0.15E+00    0.6     0.04311337        -0.8251895165 -5.02E-03
     7 OT SD       0.15E+00    0.6     0.04596614        -0.8309527443 -5.76E-03
     8 OT SD       0.15E+00    0.6     0.04877509        -0.8374761697 -6.52E-03
     9 OT SD       0.15E+00    0.6     0.05131588        -0.8448194222 -7.34E-03
    10 OT SD       0.15E+00    0.6     0.05266956        -0.8528355651 -8.02E-03
    11 OT SD       0.15E+00    0.6     0.05311177        -0.8612037247 -8.37E-03
    12 OT DIIS     0.15E+00    0.6     0.05280486        -0.8696426778 -8.44E-03
    13 OT DIIS     0.15E+00    0.6     0.05884364        -0.8755936900 -5.95E-03
    14 OT SD       0.15E+00    0.6     0.02399295        -0.9217778552 -4.62E-02
    15 OT DIIS     0.15E+00    0.6     0.01666128        -0.9232304575 -1.45E-03
    16 OT DIIS     0.15E+00    0.6     0.00974740        -0.9250313393 -1.80E-03
    17 OT SD       0.15E+00    0.6     0.00736893        -0.9251974984 -1.66E-04
    18 OT DIIS     0.15E+00    0.6     0.00435279        -0.9253263957 -1.29E-04
    19 OT DIIS     0.15E+00    0.6     0.00080521        -0.9253976070 -7.12E-05
    20 OT DIIS     0.15E+00    0.6     0.00065154        -0.9253990626 -1.46E-06
    21 OT DIIS     0.15E+00    0.6     0.00012754        -0.9254008142 -1.75E-06
    22 OT DIIS     0.15E+00    0.6     0.00004343        -0.9254008718 -5.76E-08
    23 OT DIIS     0.15E+00    0.6     0.00001468        -0.9254008791 -7.28E-09
    24 OT DIIS     0.15E+00    0.5     0.00000853        -0.9254008797 -5.54E-10
    25 OT DIIS     0.15E+00    0.5     0.00000453        -0.9254008799 -2.34E-10
    26 OT DIIS     0.15E+00    0.6     0.00000095        -0.9254008801 -1.54E-10

  *** SCF run converged in    26 steps ***


  Electronic density on regular grids:         -1.9999999996        0.0000000004
  Core density on regular grids:                1.9999999999       -0.0000000001
  Total charge density on r-space grids:        0.0000000003
  Total charge density g-space grids:           0.0000000003

  Overlap energy of the core charge distribution:               0.00000000000000
  Self energy of the core charge distribution:                 -2.82094791773878
  Core Hamiltonian energy:                                      1.07225230024016
  Hartree energy:                                               1.49358684048413
  Exchange-correlation energy:                                 -0.67029210305054

  Total energy:                                                -0.92540088006503

  Integrated absolute spin density  :                               1.9999999996
  Ideal and single determinant S**2 :                    2.000000       2.000000

 ENERGY| Total FORCE_EVAL ( QS ) energy [a.u.]:               -0.925400880070562

 -------------------------------------------------------------------------------
 -                                                                             -
 -                                DBCSR STATISTICS                             -
 -                                                                             -
 -------------------------------------------------------------------------------
 COUNTER                                    TOTAL       BLAS       SMM       ACC
 flops     2 x     2 x     2                 8832      23.7%     76.3%      0.0%
 flops     2 x     2 x    10                10400       0.0%    100.0%      0.0%
 flops    10 x     2 x    10                10800       0.0%    100.0%      0.0%
 flops    10 x     2 x     2                12400       0.0%    100.0%      0.0%
 flops     5 x     5 x     2                40800       0.0%    100.0%      0.0%
 flops     5 x     2 x     5                66400       0.0%    100.0%      0.0%
 flops inhomo. stacks                           0       0.0%      0.0%      0.0%
 flops total                       149.632000E+03       1.4%     98.6%      0.0%
 flops max/rank                    149.632000E+03       1.4%     98.6%      0.0%
 matmuls inhomo. stacks                         0       0.0%      0.0%      0.0%
 matmuls total                               1936       6.8%     93.2%      0.0%
 number of processed stacks                  1166      11.2%     88.8%      0.0%
 average stack size                                     1.0       1.7       0.0
 marketing flops                   163.312000E+03
 -------------------------------------------------------------------------------
 # multiplications                           1220
 max memory usage/rank             273.575936E+06
 # max total images/rank                        1
 # max 3D layers                                1
 # MPI messages exchanged                       0
 -------------------------------------------------------------------------------
 -                                                                             -
 -                      DBCSR MESSAGE PASSING PERFORMANCE                      -
 -                                                                             -
 -------------------------------------------------------------------------------
 ROUTINE             CALLS      AVE VOLUME [Bytes]
 MP_Bcast                7                     12.
 MP_Allreduce         6358                      8.
 MP_Alltoall          5533                     35.
 MP_ISend             4718                     33.
 MP_IRecv             4718                     33.
 -------------------------------------------------------------------------------

 -------------------------------------------------------------------------------
 -                                                                             -
 -                                DBM STATISTICS                               -
 -                                                                             -
 -------------------------------------------------------------------------------
    M  x    N  x    K                                          COUNT     PERCENT
 -------------------------------------------------------------------------------

 -------------------------------------------------------------------------------
 -                                                                             -
 -                                GRID STATISTICS                              -
 -                                                                             -
 -------------------------------------------------------------------------------
 LP    KERNEL             BACKEND                              COUNT     PERCENT
 0     collocate ortho    REF                                  30132      35.77%
 0     integrate ortho    REF                                  29016      34.44%
 1     integrate ortho    REF                                  12036      14.29%
 1     collocate ortho    REF                                  11340      13.46%
 2     integrate ortho    REF                                   1044       1.24%
 2     collocate ortho    REF                                    648       0.77%
 3     integrate ortho    REF                                     24       0.03%
 0     collocate general  REF                                      2       0.00%
 1     integrate general  REF                                      2       0.00%
 -------------------------------------------------------------------------------

 MEMORY| Estimated peak process memory [MiB]                                 261

 -------------------------------------------------------------------------------
 -                                                                             -
 -                         MESSAGE PASSING PERFORMANCE                         -
 -                                                                             -
 -------------------------------------------------------------------------------

 ROUTINE             CALLS      AVE VOLUME [Bytes]
 MP_Group                4
 MP_Bcast              152                   1508.
 MP_Allreduce          951                      9.
 MP_Sync                14
 -------------------------------------------------------------------------------


 -------------------------------------------------------------------------------
 -                                                                             -
 -                           R E F E R E N C E S                               -
 -                                                                             -
 -------------------------------------------------------------------------------
 
 CP2K version 2022.1 (Development Version), the CP2K developers group (2022).
 CP2K is freely available from https://www.cp2k.org/ .

 Kuehne,Thomas D.; Iannuzzi,Marcella; Del Ben,Mauro;
 Rybkin,Vladimir V.; Seewald,Patrick; Stein,Frederick; Laino,Teodoro;
 Khaliullin,Rustam Z.; Schuett,Ole; Schiffmann,Florian; Golze,Dorothea;
 Wilhelm,Jan; Chulkov,Sergey; Bani-Hashemian,Mohammad Hossein;
 Weber,Valery; Borstnik,Urban; Taillefumier,Mathieu;
 Jakobovits,Alice Shoshana; Lazzaro,Alfio; Pabst,Hans; Mueller,Tiziano;
 Schade,Robert; Guidon,Manuel; Andermatt,Samuel; Holmberg,Nico;
 Schenter,Gregory K.; Hehn,Anna; Bussy,Augustin; Belleflamme,Fabian;
 Tabacchi,Gloria; Gloess,Andreas; Lass,Michael; Bethune,Iain;
 Mundy,Christopher J.; Plessl,Christian; Watkins,Matt;
 VandeVondele,Joost; Krack,Matthias; Hutter,Juerg. 
 The Journal of Chemical Physics, 152 (19), (2020). 
 CP2K: An electronic structure and molecular dynamics software package -
 Quickstep: Efficient and accurate electronic structure calculations.
 https://doi.org/10.1063/5.0007045

 Schuett, Ole; Messmer, Peter; Hutter, Juerg; VandeVondele, Joost. 
 Electronic Structure Calculations on Graphics Processing Units, John
 Wiley & Sons, Ltd, 173-190 (2016). 
 GPU-Accelerated Sparse Matrix-Matrix Multiplication for
 Linear Scaling Density Functional Theory.
 https://doi.org/10.1002/9781118670712.ch8

 Heinecke, A; Henry, G; Hutchinson, M; Pabst, H. 
 Proceedings of Intl. Supercomputing Conference, 981-991 (2016). 
 LIBXSMM: Accelerating Small Matrix Multiplications
 by Runtime Code Generation.
 https://doi.org/10.1109/SC.2016.83

 Borstnik, U; VandeVondele, J; Weber, V; Hutter, J. 
 PARALLEL COMPUTING, 40 (5-6), 47-58 (2014). 
 Sparse matrix multiplication: The distributed block-compressed sparse
 row library.
 https://doi.org/10.1016/j.parco.2014.03.012

 Hutter, J; Iannuzzi, M; Schiffmann, F; VandeVondele, J. 
 WIREs Comput Mol Sci., 4 (1), 15-25 (2014). 
 CP2K: atomistic simulations of condensed matter systems.
 https://doi.org/10.1002/wcms.1159

 Marek, A; Blum, V; Johanni, R; Havu, V; Lang, B; Auckenthaler, T;
 Heinecke, A; Bungartz, H; Lederer, H. 
 Journal of Physics: Condensed Matter, 26 (21), (2014). 
 The ELPA library: scalable parallel eigenvalue solutions for
 electronic structure
 theory and computational science.
 https://doi.org/10.1088/0953-8984/26/21/213201

 Krack, M. 
 THEORETICAL CHEMISTRY ACCOUNTS, 114 (1-3), 145-152 (2005). 
 Pseudopotentials for H to Kr optimized for gradient-corrected
 exchange-correlation functionals.
 https://doi.org/10.1007/s00214-005-0655-y

 VandeVondele, J; Krack, M; Mohamed, F; Parrinello, M; Chassaing, T;
 Hutter, J. COMPUTER PHYSICS COMMUNICATIONS, 167 (2), 103-128 (2005). 
 QUICKSTEP: Fast and accurate density functional calculations using a
 mixed Gaussian and plane waves approach.
 https://doi.org/10.1016/j.cpc.2004.12.014

 Frigo, M; Johnson, SG. 
 PROCEEDINGS OF THE IEEE, 93 (2), 216-231 (2005). 
 The design and implementation of FFTW3.
 https://doi.org/10.1109/JPROC.2004.840301

 VandeVondele, J; Hutter, J. 
 JOURNAL OF CHEMICAL PHYSICS, 118 (10), 4365-4369 (2003). 
 An efficient orbital transformation method for electronic structure
 calculations.
 https://doi.org/10.1063/1.1543154

 Hartwigsen, C; Goedecker, S; Hutter, J. 
 PHYSICAL REVIEW B, 58 (7), 3641-3662 (1998). 
 Relativistic separable dual-space Gaussian pseudopotentials from H to Rn.
 https://doi.org/10.1103/PhysRevB.58.3641

 Lippert, G; Hutter, J; Parrinello, M. 
 MOLECULAR PHYSICS, 92 (3), 477-487 (1997). 
 A hybrid Gaussian and plane wave density functional scheme.
 https://doi.org/10.1080/002689797170220

 Goedecker, S; Teter, M; Hutter, J. 
 PHYSICAL REVIEW B, 54 (3), 1703-1710 (1996). 
 Separable dual-space Gaussian pseudopotentials.
 https://doi.org/10.1103/PhysRevB.54.1703

 BECKE, AD. PHYSICAL REVIEW A, 38 (6), 3098-3100 (1988). 
 DENSITY-FUNCTIONAL EXCHANGE-ENERGY APPROXIMATION WITH CORRECT
 ASYMPTOTIC-BEHAVIOR.
 https://doi.org/10.1103/PhysRevA.38.3098

 LEE, CT; YANG, WT; PARR, RG. 
 PHYSICAL REVIEW B, 37 (2), 785-789 (1988). 
 DEVELOPMENT OF THE COLLE-SALVETTI CORRELATION-ENERGY FORMULA INTO A
 FUNCTIONAL OF THE ELECTRON-DENSITY.
 https://doi.org/10.1103/PhysRevB.37.785


 -------------------------------------------------------------------------------
 -                                                                             -
 -                                T I M I N G                                  -
 -                                                                             -
 -------------------------------------------------------------------------------
 SUBROUTINE                       CALLS  ASD         SELF TIME        TOTAL TIME
                                MAXIMUM       AVERAGE  MAXIMUM  AVERAGE  MAXIMUM
 CP2K                                 1  1.0    0.008    0.008   15.958   15.958
 qs_forces                            1  2.0    0.000    0.000   15.895   15.895
 qs_energies                          1  3.0    0.000    0.000   15.360   15.360
 scf_env_do_scf                       1  4.0    0.000    0.000   15.253   15.253
 rebuild_ks_matrix                   27  6.9    0.000    0.000   14.682   14.682
 qs_ks_build_kohn_sham_matrix        27  7.9    0.003    0.003   14.682   14.682
 scf_env_do_scf_inner_loop           26  5.0    0.001    0.001   14.670   14.670
 qs_ks_update_qs_env                 27  6.0    0.000    0.000   14.148   14.148
 xc_vxc_pw_create                    81  9.9    0.333    0.333   11.583   11.583
 low_spin_roks                       27  8.9    0.031    0.031   10.103   10.103
 pw_transfer                       2674 11.9    0.128    0.128    8.474    8.474
 fft_wrap_pw1pw2                   2620 12.9    0.016    0.016    8.327    8.327
 fft_wrap_pw1pw2_170               1648 14.2    0.467    0.467    8.050    8.050
 xc_rho_set_and_dset_create          81 10.9    0.708    0.708    7.140    7.140
 xc_pw_derive                       972 11.9    0.005    0.005    5.905    5.905
 fft3d_s                           2621 14.9    4.511    4.511    4.523    4.523
 xc_pw_divergence                   162 10.9    0.002    0.002    3.899    3.899
 qs_vxc_create                       27  8.9    0.000    0.000    3.875    3.875
 xc_functional_eval                 162 11.9    0.001    0.001    3.270    3.270
 lyp_lsd_eval                        81 12.9    2.641    2.641    2.641    2.641
 calculate_rho_elec                 162  8.9    0.040    0.040    2.279    2.279
 density_rs2pw                      162  9.9    0.004    0.004    1.951    1.951
 pw_scatter_s                      1323 15.1    1.830    1.830    1.830    1.830
 pw_gather_s                       1297 14.8    1.473    1.473    1.473    1.473
 integrate_v_rspace                 162  9.9    0.003    0.003    1.253    1.253
 potential_pw2rs                    162 10.9    0.006    0.006    1.056    1.056
 qs_rho_update_rho_low               27  6.0    0.000    0.000    0.842    0.842
 pw_derive                          972 12.9    0.817    0.817    0.817    0.817
 xb88_lsd_eval                       81 12.9    0.627    0.627    0.627    0.627
 init_scf_loop                        1  5.0    0.000    0.000    0.583    0.583
 qs_ks_update_qs_env_forces           1  3.0    0.000    0.000    0.534    0.534
 pw_copy                           1540 12.1    0.450    0.450    0.450    0.450
 sum_up_and_integrate                27  8.9    0.030    0.030    0.436    0.436
 pw_axpy                           1837 11.2    0.416    0.416    0.416    0.416
 dbcsr_multiply_generic            1220 10.8    0.023    0.023    0.361    0.361
 qs_scf_new_mos                      26  6.0    0.000    0.000    0.338    0.338
 qs_scf_loop_do_ot                   26  7.0    0.000    0.000    0.338    0.338
 ot_scf_mini                         26  8.0    0.000    0.000    0.325    0.325
 -------------------------------------------------------------------------------

 The number of warnings for this run is : 0
 
 -------------------------------------------------------------------------------
  **** **** ******  **  PROGRAM ENDED AT                 2022-12-12 18:08:34.416
 ***** ** ***  *** **   PROGRAM RAN ON                           xissand-MS-7A34
 **    ****   ******    PROGRAM RAN BY                                         j
 ***** **    ** ** **   PROGRAM PROCESS ID                                 99319
  **** **  *******  **  PROGRAM STOPPED IN     /home/j/Study/QMComp/HW/3_cp2k/T1
