 DBCSR| CPU Multiplication driver                                           XSMM
 DBCSR| Multrec recursion limit                                              512
 DBCSR| Multiplication stack size                                           1000
 DBCSR| Maximum elements for images                                    UNLIMITED
 DBCSR| Multiplicative factor virtual images                                   1
 DBCSR| Use multiplication densification                                       T
 DBCSR| Multiplication size stacks                                             3
 DBCSR| Use memory pool for CPU allocation                                     F
 DBCSR| Number of 3D layers                                               SINGLE
 DBCSR| Use MPI memory allocation                                              F
 DBCSR| Use RMA algorithm                                                      F
 DBCSR| Use Communication thread                                               T
 DBCSR| Communication thread load                                             87
 DBCSR| MPI: My node id                                                        0
 DBCSR| MPI: Number of nodes                                                   1
 DBCSR| OMP: Current number of threads                                         1
 DBCSR| OMP: Max number of threads                                             1
 DBCSR| Split modifier for TAS multiplication algorithm                  1.0E+00


  **** **** ******  **  PROGRAM STARTED AT               2022-12-12 18:00:13.607
 ***** ** ***  *** **   PROGRAM STARTED ON                       xissand-MS-7A34
 **    ****   ******    PROGRAM STARTED BY                                     j
 ***** **    ** ** **   PROGRAM PROCESS ID                                 96178
  **** **  *******  **  PROGRAM STARTED IN     /home/j/Study/QMComp/HW/3_cp2k/T1

 CP2K| version string:                 CP2K version 2022.1 (Development Version)
 CP2K| source code revision number:                                  git:a213519
 CP2K| cp2kflags: omp fftw3 libxc elpa parallel mpi3 scalapack cosma xsmm spglib
 CP2K|             sirius libvori libbqb libvdwxc
 CP2K| is freely available from                            https://www.cp2k.org/
 CP2K| Program compiled at                       Tue Nov  8 04:05:17 PM MSK 2022
 CP2K| Program compiled on                                       xissand-MS-7A34
 CP2K| Program compiled for                                                local
 CP2K| Data directory path                          /home/j/Study/cp2k/cp2k/data
 CP2K| Input file name                                                  cp2k.inp

 GLOBAL| Force Environment number                                              1
 GLOBAL| Basis set file name                                           BASIS_SET
 GLOBAL| Potential file name                                      GTH_POTENTIALS
 GLOBAL| MM Potential file name                                     MM_POTENTIAL
 GLOBAL| Coordinate file name                                      __STD_INPUT__
 GLOBAL| Method name                                                        CP2K
 GLOBAL| Project name                                                 H2_08_1600
 GLOBAL| Run type                                                   ENERGY_FORCE
 GLOBAL| FFT library                                                       FFTW3
 GLOBAL| Diagonalization library                                            ELPA
 GLOBAL| DGEMM library                                                      BLAS
 GLOBAL| Minimum number of eigenvectors for ELPA usage                        16
 GLOBAL| Orthonormality check for eigenvectors                          DISABLED
 GLOBAL| Matrix multiplication library                                     COSMA
 GLOBAL| All-to-all communication in single precision                          F
 GLOBAL| FFTs using library dependent lengths                                  F
 GLOBAL| Grid backend                                                       AUTO
 GLOBAL| Global print level                                                  LOW
 GLOBAL| MPI I/O enabled                                                       T
 GLOBAL| Total number of message passing processes                             1
 GLOBAL| Number of threads for this process                                    1
 GLOBAL| This output is from process                                           0
 GLOBAL| Stack size for threads created by OpenMP (OMP_STACKSIZE)        default
 GLOBAL| CPU model name                    AMD Ryzen 5 1500X Quad-Core Processor
 GLOBAL| CPUID                                                              1002
 GLOBAL| Compiled for CPUID                                                    0

 *** HINT in environment.F:884 :: The compiler target flags (generic) used ***
 *** to build this binary cannot exploit all extensions of this CPU model  ***
 *** (x86_avx2). Consider compiler target flags as part of FCFLAGS and     ***
 *** CFLAGS (ARCH file).                                                   ***


 MEMORY| system memory details [Kb]
 MEMORY|                        rank 0           min           max       average
 MEMORY| MemTotal             16331996      16331996      16331996      16331996
 MEMORY| MemFree               5841452       5841452       5841452       5841452
 MEMORY| Buffers               1149092       1149092       1149092       1149092
 MEMORY| Cached                4230004       4230004       4230004       4230004
 MEMORY| Slab                   799516        799516        799516        799516
 MEMORY| SReclaimable           626712        626712        626712        626712
 MEMORY| MemLikelyFree        11847260      11847260      11847260      11847260


 GENERATE|  Preliminary Number of Bonds generated:                             0
 GENERATE|  Achieved consistency in connectivity generation.

 *******************************************************************************
 *******************************************************************************
 **                                                                           **
 **     #####                         ##              ##                      **
 **    ##   ##            ##          ##              ##                      **
 **   ##     ##                       ##            ######                    **
 **   ##     ##  ##   ##  ##   #####  ##  ##   ####   ##    #####    #####    **
 **   ##     ##  ##   ##  ##  ##      ## ##   ##      ##   ##   ##  ##   ##   **
 **   ##  ## ##  ##   ##  ##  ##      ####     ###    ##   ######   ######    **
 **    ##  ###   ##   ##  ##  ##      ## ##      ##   ##   ##       ##        **
 **     #######   #####   ##   #####  ##  ##  ####    ##    #####   ##        **
 **           ##                                                    ##        **
 **                                                                           **
 **                                                ... make the atoms dance   **
 **                                                                           **
 **            Copyright (C) by CP2K developers group (2000-2022)             **
 **                      J. Chem. Phys. 152, 194103 (2020)                    **
 **                                                                           **
 *******************************************************************************
 
  **************************************
  restricted calculation cutting corners
  experimental feature, check code      
  **************************************


 TOTAL NUMBERS AND MAXIMUM NUMBERS

  Total number of            - Atomic kinds:                                   1
                             - Atoms:                                          2
                             - Shell sets:                                     4
                             - Shells:                                         6
                             - Primitive Cartesian functions:                 10
                             - Cartesian basis functions:                     10
                             - Spherical basis functions:                     10

  Maximum angular momentum of- Orbital basis functions:                        1
                             - Local part of the GTH pseudopotential:          2

 *** WARNING in particle_methods.F:677 :: The distance between the atoms 1 ***
 *** and 2 is only 0.300 angstrom and thus smaller than the threshold of   ***
 *** 0.500 angstrom                                                        ***



 SCF PARAMETERS         Density guess:                                    ATOMIC
                        --------------------------------------------------------
                        max_scf:                                             400
                        max_scf_history:                                       0
                        max_diis:                                              4
                        --------------------------------------------------------
                        eps_scf:                                        1.00E-06
                        eps_scf_history:                                0.00E+00
                        eps_diis:                                       1.00E-01
                        eps_eigval:                                     1.00E-05
                        --------------------------------------------------------
                        level_shift [a.u.]:                             0.000000
                        --------------------------------------------------------
                        No outer SCF

 Spin 1

 Number of electrons:                                                          2
 Number of occupied orbitals:                                                  2
 Number of molecular orbitals:                                                 2

 Spin 2

 Number of electrons:                                                          0
 Number of occupied orbitals:                                                  0
 Number of molecular orbitals:                                                 0

 Number of orbital functions:                                                 10
 Number of independent orbital functions:                                     10

 Extrapolation method: initial_guess


 SCF WAVEFUNCTION OPTIMIZATION

  ----------------------------------- OT ---------------------------------------
  Allowing for rotations 
  Minimizer      : DIIS                : direct inversion
                                         in the iterative subspace
                                         using   7 DIIS vectors
                                         safer DIIS on
  Preconditioner : FULL_SINGLE         : diagonalization based
  Precond_solver : DEFAULT
  stepsize       :    0.15000000                  energy_gap     :    0.20000000
  eps_taylor     :   0.10000E-15                  max_taylor     :             4
  ----------------------------------- OT ---------------------------------------

  Step     Update method      Time    Convergence         Total energy    Change
  ------------------------------------------------------------------------------
     1 OT DIIS     0.15E+00    0.6     0.50483852         0.7541286673  7.54E-01
     2 OT DIIS     0.15E+00    0.6     0.30871251         0.2552683854 -4.99E-01
     3 OT DIIS     0.15E+00    0.6     0.16032346         0.0977039463 -1.58E-01
     4 OT SD       0.15E+00    0.6     0.11271723         0.0531641553 -4.45E-02
     5 OT DIIS     0.15E+00    0.6     0.06753372         0.0375982048 -1.56E-02
     6 OT DIIS     0.15E+00    0.6     0.05711869         0.0362796869 -1.32E-03
     7 OT DIIS     0.15E+00    0.6     0.01804466         0.0320785952 -4.20E-03
     8 OT DIIS     0.15E+00    0.6     0.00745862         0.0315597869 -5.19E-04
     9 OT DIIS     0.15E+00    0.6     0.00105234         0.0314663846 -9.34E-05
    10 OT DIIS     0.15E+00    0.7     0.00120019         0.0314633870 -3.00E-06
    11 OT DIIS     0.15E+00    0.6     0.00083923         0.0314532789 -1.01E-05
    12 OT DIIS     0.15E+00    0.6     0.00074294         0.0314438811 -9.40E-06
    13 OT DIIS     0.15E+00    0.7     0.00043012         0.0314185654 -2.53E-05
    14 OT DIIS     0.15E+00    0.6     0.00006741         0.0314155211 -3.04E-06
    15 OT DIIS     0.15E+00    0.6     0.00002845         0.0314154831 -3.79E-08
    16 OT DIIS     0.15E+00    0.6     0.00001634         0.0314154801 -3.07E-09
    17 OT DIIS     0.15E+00    0.6     0.00001070         0.0314154799 -1.51E-10
    18 OT DIIS     0.15E+00    0.6     0.00000302         0.0314154794 -4.78E-10
    19 OT DIIS     0.15E+00    0.6     0.00000103         0.0314154793 -1.27E-10
    20 OT DIIS     0.15E+00    0.6     0.00000043         0.0314154793  9.07E-12

  *** SCF run converged in    20 steps ***


  Electronic density on regular grids:         -2.0000000088       -0.0000000088
  Core density on regular grids:                1.9999999999       -0.0000000001
  Total charge density on r-space grids:       -0.0000000089
  Total charge density g-space grids:          -0.0000000089

  Overlap energy of the core charge distribution:               0.07943268434768
  Self energy of the core charge distribution:                 -2.82094791773878
  Core Hamiltonian energy:                                      1.41469603048414
  Hartree energy:                                               2.07653943959550
  Exchange-correlation energy:                                 -0.71830475736578

  Total energy:                                                 0.03141547932276

  Integrated absolute spin density  :                               2.0000000088
  Ideal and single determinant S**2 :                    2.000000       2.000000

 ENERGY| Total FORCE_EVAL ( QS ) energy [a.u.]:                0.031415479330294

 -------------------------------------------------------------------------------
 -                                                                             -
 -                                DBCSR STATISTICS                             -
 -                                                                             -
 -------------------------------------------------------------------------------
 COUNTER                                    TOTAL       BLAS       SMM       ACC
 flops     2 x     2 x     2                 5360      30.1%     69.9%      0.0%
 flops     2 x     2 x    10                 8000       0.0%    100.0%      0.0%
 flops    10 x     2 x    10                 8400       0.0%    100.0%      0.0%
 flops    10 x     2 x     2                 9520       0.0%    100.0%      0.0%
 flops     5 x     5 x     2                31800       0.0%    100.0%      0.0%
 flops     5 x     2 x     5                52000       0.0%    100.0%      0.0%
 flops inhomo. stacks                           0       0.0%      0.0%      0.0%
 flops total                       115.080000E+03       1.4%     98.6%      0.0%
 flops max/rank                    115.080000E+03       1.4%     98.6%      0.0%
 matmuls inhomo. stacks                         0       0.0%      0.0%      0.0%
 matmuls total                               1413       7.1%     92.9%      0.0%
 number of processed stacks                   811      12.5%     87.5%      0.0%
 average stack size                                     1.0       1.8       0.0
 marketing flops                   125.760000E+03
 -------------------------------------------------------------------------------
 # multiplications                            853
 max memory usage/rank             272.809984E+06
 # max total images/rank                        1
 # max 3D layers                                1
 # MPI messages exchanged                       0
 -------------------------------------------------------------------------------
 -                                                                             -
 -                      DBCSR MESSAGE PASSING PERFORMANCE                      -
 -                                                                             -
 -------------------------------------------------------------------------------
 ROUTINE             CALLS      AVE VOLUME [Bytes]
 MP_Bcast                7                     12.
 MP_Allreduce         4457                      8.
 MP_Alltoall          4314                     37.
 MP_ISend             3286                     35.
 MP_IRecv             3286                     35.
 -------------------------------------------------------------------------------

 -------------------------------------------------------------------------------
 -                                                                             -
 -                                DBM STATISTICS                               -
 -                                                                             -
 -------------------------------------------------------------------------------
    M  x    N  x    K                                          COUNT     PERCENT
 -------------------------------------------------------------------------------

 -------------------------------------------------------------------------------
 -                                                                             -
 -                                GRID STATISTICS                              -
 -                                                                             -
 -------------------------------------------------------------------------------
 LP    KERNEL             BACKEND                              COUNT     PERCENT
 0     collocate ortho    REF                                  21672      36.59%
 0     integrate ortho    REF                                  20640      34.85%
 1     integrate ortho    REF                                   8232      13.90%
 1     collocate ortho    REF                                   7560      12.77%
 2     integrate ortho    REF                                    720       1.22%
 2     collocate ortho    REF                                    378       0.64%
 3     integrate ortho    REF                                     18       0.03%
 0     collocate general  REF                                      2       0.00%
 1     integrate general  REF                                      2       0.00%
 -------------------------------------------------------------------------------

 MEMORY| Estimated peak process memory [MiB]                                 261

 -------------------------------------------------------------------------------
 -                                                                             -
 -                         MESSAGE PASSING PERFORMANCE                         -
 -                                                                             -
 -------------------------------------------------------------------------------

 ROUTINE             CALLS      AVE VOLUME [Bytes]
 MP_Group                4
 MP_Bcast              124                   1438.
 MP_Allreduce          869                      9.
 MP_Sync                26
 -------------------------------------------------------------------------------


 -------------------------------------------------------------------------------
 -                                                                             -
 -                           R E F E R E N C E S                               -
 -                                                                             -
 -------------------------------------------------------------------------------
 
 CP2K version 2022.1 (Development Version), the CP2K developers group (2022).
 CP2K is freely available from https://www.cp2k.org/ .

 Kuehne,Thomas D.; Iannuzzi,Marcella; Del Ben,Mauro;
 Rybkin,Vladimir V.; Seewald,Patrick; Stein,Frederick; Laino,Teodoro;
 Khaliullin,Rustam Z.; Schuett,Ole; Schiffmann,Florian; Golze,Dorothea;
 Wilhelm,Jan; Chulkov,Sergey; Bani-Hashemian,Mohammad Hossein;
 Weber,Valery; Borstnik,Urban; Taillefumier,Mathieu;
 Jakobovits,Alice Shoshana; Lazzaro,Alfio; Pabst,Hans; Mueller,Tiziano;
 Schade,Robert; Guidon,Manuel; Andermatt,Samuel; Holmberg,Nico;
 Schenter,Gregory K.; Hehn,Anna; Bussy,Augustin; Belleflamme,Fabian;
 Tabacchi,Gloria; Gloess,Andreas; Lass,Michael; Bethune,Iain;
 Mundy,Christopher J.; Plessl,Christian; Watkins,Matt;
 VandeVondele,Joost; Krack,Matthias; Hutter,Juerg. 
 The Journal of Chemical Physics, 152 (19), (2020). 
 CP2K: An electronic structure and molecular dynamics software package -
 Quickstep: Efficient and accurate electronic structure calculations.
 https://doi.org/10.1063/5.0007045

 Schuett, Ole; Messmer, Peter; Hutter, Juerg; VandeVondele, Joost. 
 Electronic Structure Calculations on Graphics Processing Units, John
 Wiley & Sons, Ltd, 173-190 (2016). 
 GPU-Accelerated Sparse Matrix-Matrix Multiplication for
 Linear Scaling Density Functional Theory.
 https://doi.org/10.1002/9781118670712.ch8

 Heinecke, A; Henry, G; Hutchinson, M; Pabst, H. 
 Proceedings of Intl. Supercomputing Conference, 981-991 (2016). 
 LIBXSMM: Accelerating Small Matrix Multiplications
 by Runtime Code Generation.
 https://doi.org/10.1109/SC.2016.83

 Borstnik, U; VandeVondele, J; Weber, V; Hutter, J. 
 PARALLEL COMPUTING, 40 (5-6), 47-58 (2014). 
 Sparse matrix multiplication: The distributed block-compressed sparse
 row library.
 https://doi.org/10.1016/j.parco.2014.03.012

 Hutter, J; Iannuzzi, M; Schiffmann, F; VandeVondele, J. 
 WIREs Comput Mol Sci., 4 (1), 15-25 (2014). 
 CP2K: atomistic simulations of condensed matter systems.
 https://doi.org/10.1002/wcms.1159

 Marek, A; Blum, V; Johanni, R; Havu, V; Lang, B; Auckenthaler, T;
 Heinecke, A; Bungartz, H; Lederer, H. 
 Journal of Physics: Condensed Matter, 26 (21), (2014). 
 The ELPA library: scalable parallel eigenvalue solutions for
 electronic structure
 theory and computational science.
 https://doi.org/10.1088/0953-8984/26/21/213201

 Krack, M. 
 THEORETICAL CHEMISTRY ACCOUNTS, 114 (1-3), 145-152 (2005). 
 Pseudopotentials for H to Kr optimized for gradient-corrected
 exchange-correlation functionals.
 https://doi.org/10.1007/s00214-005-0655-y

 VandeVondele, J; Krack, M; Mohamed, F; Parrinello, M; Chassaing, T;
 Hutter, J. COMPUTER PHYSICS COMMUNICATIONS, 167 (2), 103-128 (2005). 
 QUICKSTEP: Fast and accurate density functional calculations using a
 mixed Gaussian and plane waves approach.
 https://doi.org/10.1016/j.cpc.2004.12.014

 Frigo, M; Johnson, SG. 
 PROCEEDINGS OF THE IEEE, 93 (2), 216-231 (2005). 
 The design and implementation of FFTW3.
 https://doi.org/10.1109/JPROC.2004.840301

 VandeVondele, J; Hutter, J. 
 JOURNAL OF CHEMICAL PHYSICS, 118 (10), 4365-4369 (2003). 
 An efficient orbital transformation method for electronic structure
 calculations.
 https://doi.org/10.1063/1.1543154

 Hartwigsen, C; Goedecker, S; Hutter, J. 
 PHYSICAL REVIEW B, 58 (7), 3641-3662 (1998). 
 Relativistic separable dual-space Gaussian pseudopotentials from H to Rn.
 https://doi.org/10.1103/PhysRevB.58.3641

 Lippert, G; Hutter, J; Parrinello, M. 
 MOLECULAR PHYSICS, 92 (3), 477-487 (1997). 
 A hybrid Gaussian and plane wave density functional scheme.
 https://doi.org/10.1080/002689797170220

 Goedecker, S; Teter, M; Hutter, J. 
 PHYSICAL REVIEW B, 54 (3), 1703-1710 (1996). 
 Separable dual-space Gaussian pseudopotentials.
 https://doi.org/10.1103/PhysRevB.54.1703

 BECKE, AD. PHYSICAL REVIEW A, 38 (6), 3098-3100 (1988). 
 DENSITY-FUNCTIONAL EXCHANGE-ENERGY APPROXIMATION WITH CORRECT
 ASYMPTOTIC-BEHAVIOR.
 https://doi.org/10.1103/PhysRevA.38.3098

 LEE, CT; YANG, WT; PARR, RG. 
 PHYSICAL REVIEW B, 37 (2), 785-789 (1988). 
 DEVELOPMENT OF THE COLLE-SALVETTI CORRELATION-ENERGY FORMULA INTO A
 FUNCTIONAL OF THE ELECTRON-DENSITY.
 https://doi.org/10.1103/PhysRevB.37.785


 -------------------------------------------------------------------------------
 -                                                                             -
 -                                T I M I N G                                  -
 -                                                                             -
 -------------------------------------------------------------------------------
 SUBROUTINE                       CALLS  ASD         SELF TIME        TOTAL TIME
                                MAXIMUM       AVERAGE  MAXIMUM  AVERAGE  MAXIMUM
 CP2K                                 1  1.0    0.004    0.004   12.906   12.906
 qs_forces                            1  2.0    0.000    0.000   12.848   12.848
 qs_energies                          1  3.0    0.000    0.000   12.310   12.310
 scf_env_do_scf                       1  4.0    0.000    0.000   12.246   12.246
 rebuild_ks_matrix                   21  6.9    0.000    0.000   11.930   11.930
 qs_ks_build_kohn_sham_matrix        21  7.9    0.003    0.003   11.930   11.930
 scf_env_do_scf_inner_loop           20  5.0    0.001    0.001   11.657   11.657
 qs_ks_update_qs_env                 21  6.0    0.000    0.000   11.394   11.394
 xc_vxc_pw_create                    63  9.9    0.275    0.275    9.346    9.346
 low_spin_roks                       21  8.9    0.027    0.027    8.254    8.254
 pw_transfer                       2080 11.9    0.105    0.105    6.893    6.893
 fft_wrap_pw1pw2                   2038 12.9    0.014    0.014    6.770    6.770
 fft_wrap_pw1pw2_170               1282 14.2    0.398    0.398    6.513    6.513
 xc_rho_set_and_dset_create          63 10.9    0.574    0.574    5.723    5.723
 xc_pw_derive                       756 11.9    0.004    0.004    4.820    4.820
 fft3d_s                           2039 14.9    3.631    3.631    3.642    3.642
 xc_pw_divergence                   126 10.9    0.002    0.002    3.167    3.167
 qs_vxc_create                       21  8.9    0.000    0.000    3.082    3.082
 xc_functional_eval                 126 11.9    0.001    0.001    2.531    2.531
 lyp_lsd_eval                        63 12.9    2.040    2.040    2.040    2.040
 calculate_rho_elec                 126  8.9    0.031    0.031    1.848    1.848
 density_rs2pw                      126  9.9    0.003    0.003    1.587    1.587
 pw_scatter_s                      1029 15.0    1.506    1.506    1.506    1.506
 pw_gather_s                       1009 14.8    1.195    1.195    1.195    1.195
 integrate_v_rspace                 126  9.9    0.003    0.003    1.048    1.048
 potential_pw2rs                    126 10.9    0.005    0.005    0.900    0.900
 pw_derive                          756 12.9    0.715    0.715    0.715    0.715
 qs_rho_update_rho_low               21  6.0    0.000    0.000    0.651    0.651
 init_scf_loop                        1  5.0    0.000    0.000    0.589    0.589
 qs_ks_update_qs_env_forces           1  3.0    0.000    0.000    0.537    0.537
 xb88_lsd_eval                       63 12.9    0.490    0.490    0.490    0.490
 pw_copy                           1198 12.1    0.382    0.382    0.382    0.382
 sum_up_and_integrate                21  8.9    0.028    0.028    0.373    0.373
 pw_axpy                           1429 11.2    0.348    0.348    0.348    0.348
 -------------------------------------------------------------------------------

 The number of warnings for this run is : 1
 
 -------------------------------------------------------------------------------
  **** **** ******  **  PROGRAM ENDED AT                 2022-12-12 18:00:27.051
 ***** ** ***  *** **   PROGRAM RAN ON                           xissand-MS-7A34
 **    ****   ******    PROGRAM RAN BY                                         j
 ***** **    ** ** **   PROGRAM PROCESS ID                                 96178
  **** **  *******  **  PROGRAM STOPPED IN     /home/j/Study/QMComp/HW/3_cp2k/T1
