 DBCSR| CPU Multiplication driver                                           XSMM
 DBCSR| Multrec recursion limit                                              512
 DBCSR| Multiplication stack size                                           1000
 DBCSR| Maximum elements for images                                    UNLIMITED
 DBCSR| Multiplicative factor virtual images                                   1
 DBCSR| Use multiplication densification                                       T
 DBCSR| Multiplication size stacks                                             3
 DBCSR| Use memory pool for CPU allocation                                     F
 DBCSR| Number of 3D layers                                               SINGLE
 DBCSR| Use MPI memory allocation                                              F
 DBCSR| Use RMA algorithm                                                      F
 DBCSR| Use Communication thread                                               T
 DBCSR| Communication thread load                                             87
 DBCSR| MPI: My node id                                                        0
 DBCSR| MPI: Number of nodes                                                   1
 DBCSR| OMP: Current number of threads                                         1
 DBCSR| OMP: Max number of threads                                             1
 DBCSR| Split modifier for TAS multiplication algorithm                  1.0E+00


  **** **** ******  **  PROGRAM STARTED AT               2022-12-12 18:09:16.265
 ***** ** ***  *** **   PROGRAM STARTED ON                       xissand-MS-7A34
 **    ****   ******    PROGRAM STARTED BY                                     j
 ***** **    ** ** **   PROGRAM PROCESS ID                                 99611
  **** **  *******  **  PROGRAM STARTED IN     /home/j/Study/QMComp/HW/3_cp2k/T1

 CP2K| version string:                 CP2K version 2022.1 (Development Version)
 CP2K| source code revision number:                                  git:a213519
 CP2K| cp2kflags: omp fftw3 libxc elpa parallel mpi3 scalapack cosma xsmm spglib
 CP2K|             sirius libvori libbqb libvdwxc
 CP2K| is freely available from                            https://www.cp2k.org/
 CP2K| Program compiled at                       Tue Nov  8 04:05:17 PM MSK 2022
 CP2K| Program compiled on                                       xissand-MS-7A34
 CP2K| Program compiled for                                                local
 CP2K| Data directory path                          /home/j/Study/cp2k/cp2k/data
 CP2K| Input file name                                                  cp2k.inp

 GLOBAL| Force Environment number                                              1
 GLOBAL| Basis set file name                                           BASIS_SET
 GLOBAL| Potential file name                                      GTH_POTENTIALS
 GLOBAL| MM Potential file name                                     MM_POTENTIAL
 GLOBAL| Coordinate file name                                      __STD_INPUT__
 GLOBAL| Method name                                                        CP2K
 GLOBAL| Project name                                                 H2_08_1600
 GLOBAL| Run type                                                   ENERGY_FORCE
 GLOBAL| FFT library                                                       FFTW3
 GLOBAL| Diagonalization library                                            ELPA
 GLOBAL| DGEMM library                                                      BLAS
 GLOBAL| Minimum number of eigenvectors for ELPA usage                        16
 GLOBAL| Orthonormality check for eigenvectors                          DISABLED
 GLOBAL| Matrix multiplication library                                     COSMA
 GLOBAL| All-to-all communication in single precision                          F
 GLOBAL| FFTs using library dependent lengths                                  F
 GLOBAL| Grid backend                                                       AUTO
 GLOBAL| Global print level                                                  LOW
 GLOBAL| MPI I/O enabled                                                       T
 GLOBAL| Total number of message passing processes                             1
 GLOBAL| Number of threads for this process                                    1
 GLOBAL| This output is from process                                           0
 GLOBAL| Stack size for threads created by OpenMP (OMP_STACKSIZE)        default
 GLOBAL| CPU model name                    AMD Ryzen 5 1500X Quad-Core Processor
 GLOBAL| CPUID                                                              1002
 GLOBAL| Compiled for CPUID                                                    0

 *** HINT in environment.F:884 :: The compiler target flags (generic) used ***
 *** to build this binary cannot exploit all extensions of this CPU model  ***
 *** (x86_avx2). Consider compiler target flags as part of FCFLAGS and     ***
 *** CFLAGS (ARCH file).                                                   ***


 MEMORY| system memory details [Kb]
 MEMORY|                        rank 0           min           max       average
 MEMORY| MemTotal             16331996      16331996      16331996      16331996
 MEMORY| MemFree               5942872       5942872       5942872       5942872
 MEMORY| Buffers               1153360       1153360       1153360       1153360
 MEMORY| Cached                4233784       4233784       4233784       4233784
 MEMORY| Slab                   801224        801224        801224        801224
 MEMORY| SReclaimable           628176        628176        628176        628176
 MEMORY| MemLikelyFree        11958192      11958192      11958192      11958192


 GENERATE|  Preliminary Number of Bonds generated:                             0
 GENERATE|  Achieved consistency in connectivity generation.

 *******************************************************************************
 *******************************************************************************
 **                                                                           **
 **     #####                         ##              ##                      **
 **    ##   ##            ##          ##              ##                      **
 **   ##     ##                       ##            ######                    **
 **   ##     ##  ##   ##  ##   #####  ##  ##   ####   ##    #####    #####    **
 **   ##     ##  ##   ##  ##  ##      ## ##   ##      ##   ##   ##  ##   ##   **
 **   ##  ## ##  ##   ##  ##  ##      ####     ###    ##   ######   ######    **
 **    ##  ###   ##   ##  ##  ##      ## ##      ##   ##   ##       ##        **
 **     #######   #####   ##   #####  ##  ##  ####    ##    #####   ##        **
 **           ##                                                    ##        **
 **                                                                           **
 **                                                ... make the atoms dance   **
 **                                                                           **
 **            Copyright (C) by CP2K developers group (2000-2022)             **
 **                      J. Chem. Phys. 152, 194103 (2020)                    **
 **                                                                           **
 *******************************************************************************
 
  **************************************
  restricted calculation cutting corners
  experimental feature, check code      
  **************************************


 TOTAL NUMBERS AND MAXIMUM NUMBERS

  Total number of            - Atomic kinds:                                   1
                             - Atoms:                                          2
                             - Shell sets:                                     4
                             - Shells:                                         6
                             - Primitive Cartesian functions:                 10
                             - Cartesian basis functions:                     10
                             - Spherical basis functions:                     10

  Maximum angular momentum of- Orbital basis functions:                        1
                             - Local part of the GTH pseudopotential:          2


 SCF PARAMETERS         Density guess:                                    ATOMIC
                        --------------------------------------------------------
                        max_scf:                                             400
                        max_scf_history:                                       0
                        max_diis:                                              4
                        --------------------------------------------------------
                        eps_scf:                                        1.00E-06
                        eps_scf_history:                                0.00E+00
                        eps_diis:                                       1.00E-01
                        eps_eigval:                                     1.00E-05
                        --------------------------------------------------------
                        level_shift [a.u.]:                             0.000000
                        --------------------------------------------------------
                        No outer SCF

 Spin 1

 Number of electrons:                                                          2
 Number of occupied orbitals:                                                  2
 Number of molecular orbitals:                                                 2

 Spin 2

 Number of electrons:                                                          0
 Number of occupied orbitals:                                                  0
 Number of molecular orbitals:                                                 0

 Number of orbital functions:                                                 10
 Number of independent orbital functions:                                     10

 Extrapolation method: initial_guess


 SCF WAVEFUNCTION OPTIMIZATION

  ----------------------------------- OT ---------------------------------------
  Allowing for rotations 
  Minimizer      : DIIS                : direct inversion
                                         in the iterative subspace
                                         using   7 DIIS vectors
                                         safer DIIS on
  Preconditioner : FULL_SINGLE         : diagonalization based
  Precond_solver : DEFAULT
  stepsize       :    0.15000000                  energy_gap     :    0.20000000
  eps_taylor     :   0.10000E-15                  max_taylor     :             4
  ----------------------------------- OT ---------------------------------------

  Step     Update method      Time    Convergence         Total energy    Change
  ------------------------------------------------------------------------------
     1 OT DIIS     0.15E+00    0.6     0.04846733        -0.8022781929 -8.02E-01
     2 OT DIIS     0.15E+00    0.6     0.03702812        -0.8084708241 -6.19E-03
     3 OT DIIS     0.15E+00    0.5     0.01908806        -0.8172988470 -8.83E-03
     4 OT SD       0.15E+00    0.5     0.02115743        -0.8184777099 -1.18E-03
     5 OT SD       0.15E+00    0.5     0.02360912        -0.8198959798 -1.42E-03
     6 OT SD       0.15E+00    0.5     0.02695902        -0.8216764754 -1.78E-03
     7 OT SD       0.15E+00    0.5     0.03051816        -0.8240060167 -2.33E-03
     8 OT SD       0.15E+00    0.5     0.03411619        -0.8269665740 -2.96E-03
     9 OT SD       0.15E+00    0.5     0.03786389        -0.8306524054 -3.69E-03
    10 OT SD       0.15E+00    0.5     0.04164751        -0.8351720064 -4.52E-03
    11 OT SD       0.15E+00    0.5     0.04530984        -0.8406096673 -5.44E-03
    12 OT SD       0.15E+00    0.5     0.04868005        -0.8470044290 -6.39E-03
    13 OT SD       0.15E+00    0.5     0.05216813        -0.8543815976 -7.38E-03
    14 OT SD       0.15E+00    0.5     0.05432789        -0.8627299134 -8.35E-03
    15 OT SD       0.15E+00    0.5     0.05551499        -0.8716944770 -8.96E-03
    16 OT SD       0.15E+00    0.5     0.05569713        -0.8809685311 -9.27E-03
    17 OT SD       0.15E+00    0.5     0.05548312        -0.8902760779 -9.31E-03
    18 OT SD       0.15E+00    0.5     0.05350124        -0.8993607911 -9.08E-03
    19 OT SD       0.15E+00    0.5     0.05059331        -0.9077291024 -8.37E-03
    20 OT SD       0.15E+00    0.5     0.04741121        -0.9151690977 -7.44E-03
    21 OT SD       0.15E+00    0.5     0.04313574        -0.9216220667 -6.45E-03
    22 OT DIIS     0.15E+00    0.5     0.03847846        -0.9269073824 -5.29E-03
    23 OT DIIS     0.15E+00    0.5     0.05394519        -0.9226612170  4.25E-03
    24 OT DIIS     0.15E+00    0.5     0.02236618        -0.9429217065 -2.03E-02
    25 OT DIIS     0.15E+00    0.5     0.01365246        -0.9439297401 -1.01E-03
    26 OT SD       0.15E+00    0.5     0.01953289        -0.9435093247  4.20E-04
    27 OT DIIS     0.15E+00    0.5     0.01183668        -0.9444254271 -9.16E-04
    28 OT DIIS     0.15E+00    0.5     0.00372494        -0.9449723337 -5.47E-04
    29 OT DIIS     0.15E+00    0.5     0.00088094        -0.9450324074 -6.01E-05
    30 OT DIIS     0.15E+00    0.5     0.00021340        -0.9450358675 -3.46E-06
    31 OT DIIS     0.15E+00    0.5     0.00010961        -0.9450360141 -1.47E-07
    32 OT DIIS     0.15E+00    0.5     0.00001250        -0.9450360811 -6.70E-08
    33 OT DIIS     0.15E+00    0.5     0.00000465        -0.9450360820 -8.75E-10
    34 OT DIIS     0.15E+00    0.5     0.00000284        -0.9450360821 -5.48E-11
    35 OT DIIS     0.15E+00    0.5     0.00000137        -0.9450360821 -2.94E-11
    36 OT DIIS     0.15E+00    0.5     0.00000061        -0.9450360821 -7.43E-12

  *** SCF run converged in    36 steps ***


  Electronic density on regular grids:         -1.9999999996        0.0000000004
  Core density on regular grids:                1.9999999999       -0.0000000001
  Total charge density on r-space grids:        0.0000000003
  Total charge density g-space grids:           0.0000000003

  Overlap energy of the core charge distribution:               0.00000000000000
  Self energy of the core charge distribution:                 -2.82094791773878
  Core Hamiltonian energy:                                      1.04503189576003
  Hartree energy:                                               1.49595493619826
  Exchange-correlation energy:                                 -0.66507499631204

  Total energy:                                                -0.94503608209253

  Integrated absolute spin density  :                               1.9999999996
  Ideal and single determinant S**2 :                    2.000000       2.000000

 ENERGY| Total FORCE_EVAL ( QS ) energy [a.u.]:               -0.945036082093766

 -------------------------------------------------------------------------------
 -                                                                             -
 -                                DBCSR STATISTICS                             -
 -                                                                             -
 -------------------------------------------------------------------------------
 COUNTER                                    TOTAL       BLAS       SMM       ACC
 flops     2 x     2 x     2                13568      21.3%     78.7%      0.0%
 flops     2 x     2 x    10                14400       0.0%    100.0%      0.0%
 flops    10 x     2 x    10                14800       0.0%    100.0%      0.0%
 flops    10 x     2 x     2                17200       0.0%    100.0%      0.0%
 flops     5 x     5 x     2                55800       0.0%    100.0%      0.0%
 flops     5 x     2 x     5                90400       0.0%    100.0%      0.0%
 flops inhomo. stacks                           0       0.0%      0.0%      0.0%
 flops total                       206.168000E+03       1.4%     98.6%      0.0%
 flops max/rank                    206.168000E+03       1.4%     98.6%      0.0%
 matmuls inhomo. stacks                         0       0.0%      0.0%      0.0%
 matmuls total                               2742       6.6%     93.4%      0.0%
 number of processed stacks                  1692      10.7%     89.3%      0.0%
 average stack size                                     1.0       1.7       0.0
 marketing flops                   224.848000E+03
 -------------------------------------------------------------------------------
 # multiplications                           1766
 max memory usage/rank             273.756160E+06
 # max total images/rank                        1
 # max 3D layers                                1
 # MPI messages exchanged                       0
 -------------------------------------------------------------------------------
 -                                                                             -
 -                      DBCSR MESSAGE PASSING PERFORMANCE                      -
 -                                                                             -
 -------------------------------------------------------------------------------
 ROUTINE             CALLS      AVE VOLUME [Bytes]
 MP_Bcast                7                     12.
 MP_Allreduce         9198                      8.
 MP_Alltoall          7549                     33.
 MP_ISend             6842                     32.
 MP_IRecv             6842                     32.
 -------------------------------------------------------------------------------

 -------------------------------------------------------------------------------
 -                                                                             -
 -                                DBM STATISTICS                               -
 -                                                                             -
 -------------------------------------------------------------------------------
    M  x    N  x    K                                          COUNT     PERCENT
 -------------------------------------------------------------------------------

 -------------------------------------------------------------------------------
 -                                                                             -
 -                                GRID STATISTICS                              -
 -                                                                             -
 -------------------------------------------------------------------------------
 LP    KERNEL             BACKEND                              COUNT     PERCENT
 0     collocate ortho    REF                                  39960      35.71%
 0     integrate ortho    REF                                  38880      34.75%
 1     integrate ortho    REF                                  15768      14.09%
 1     collocate ortho    REF                                  15096      13.49%
 2     integrate ortho    REF                                   1272       1.14%
 2     collocate ortho    REF                                    888       0.79%
 3     integrate ortho    REF                                     24       0.02%
 0     collocate general  REF                                      2       0.00%
 1     integrate general  REF                                      2       0.00%
 -------------------------------------------------------------------------------

 MEMORY| Estimated peak process memory [MiB]                                 262

 -------------------------------------------------------------------------------
 -                                                                             -
 -                         MESSAGE PASSING PERFORMANCE                         -
 -                                                                             -
 -------------------------------------------------------------------------------

 ROUTINE             CALLS      AVE VOLUME [Bytes]
 MP_Group                4
 MP_Bcast              178                   1763.
 MP_Allreduce         1060                      8.
 MP_Sync                 6
 -------------------------------------------------------------------------------


 -------------------------------------------------------------------------------
 -                                                                             -
 -                           R E F E R E N C E S                               -
 -                                                                             -
 -------------------------------------------------------------------------------
 
 CP2K version 2022.1 (Development Version), the CP2K developers group (2022).
 CP2K is freely available from https://www.cp2k.org/ .

 Kuehne,Thomas D.; Iannuzzi,Marcella; Del Ben,Mauro;
 Rybkin,Vladimir V.; Seewald,Patrick; Stein,Frederick; Laino,Teodoro;
 Khaliullin,Rustam Z.; Schuett,Ole; Schiffmann,Florian; Golze,Dorothea;
 Wilhelm,Jan; Chulkov,Sergey; Bani-Hashemian,Mohammad Hossein;
 Weber,Valery; Borstnik,Urban; Taillefumier,Mathieu;
 Jakobovits,Alice Shoshana; Lazzaro,Alfio; Pabst,Hans; Mueller,Tiziano;
 Schade,Robert; Guidon,Manuel; Andermatt,Samuel; Holmberg,Nico;
 Schenter,Gregory K.; Hehn,Anna; Bussy,Augustin; Belleflamme,Fabian;
 Tabacchi,Gloria; Gloess,Andreas; Lass,Michael; Bethune,Iain;
 Mundy,Christopher J.; Plessl,Christian; Watkins,Matt;
 VandeVondele,Joost; Krack,Matthias; Hutter,Juerg. 
 The Journal of Chemical Physics, 152 (19), (2020). 
 CP2K: An electronic structure and molecular dynamics software package -
 Quickstep: Efficient and accurate electronic structure calculations.
 https://doi.org/10.1063/5.0007045

 Schuett, Ole; Messmer, Peter; Hutter, Juerg; VandeVondele, Joost. 
 Electronic Structure Calculations on Graphics Processing Units, John
 Wiley & Sons, Ltd, 173-190 (2016). 
 GPU-Accelerated Sparse Matrix-Matrix Multiplication for
 Linear Scaling Density Functional Theory.
 https://doi.org/10.1002/9781118670712.ch8

 Heinecke, A; Henry, G; Hutchinson, M; Pabst, H. 
 Proceedings of Intl. Supercomputing Conference, 981-991 (2016). 
 LIBXSMM: Accelerating Small Matrix Multiplications
 by Runtime Code Generation.
 https://doi.org/10.1109/SC.2016.83

 Borstnik, U; VandeVondele, J; Weber, V; Hutter, J. 
 PARALLEL COMPUTING, 40 (5-6), 47-58 (2014). 
 Sparse matrix multiplication: The distributed block-compressed sparse
 row library.
 https://doi.org/10.1016/j.parco.2014.03.012

 Hutter, J; Iannuzzi, M; Schiffmann, F; VandeVondele, J. 
 WIREs Comput Mol Sci., 4 (1), 15-25 (2014). 
 CP2K: atomistic simulations of condensed matter systems.
 https://doi.org/10.1002/wcms.1159

 Marek, A; Blum, V; Johanni, R; Havu, V; Lang, B; Auckenthaler, T;
 Heinecke, A; Bungartz, H; Lederer, H. 
 Journal of Physics: Condensed Matter, 26 (21), (2014). 
 The ELPA library: scalable parallel eigenvalue solutions for
 electronic structure
 theory and computational science.
 https://doi.org/10.1088/0953-8984/26/21/213201

 Krack, M. 
 THEORETICAL CHEMISTRY ACCOUNTS, 114 (1-3), 145-152 (2005). 
 Pseudopotentials for H to Kr optimized for gradient-corrected
 exchange-correlation functionals.
 https://doi.org/10.1007/s00214-005-0655-y

 VandeVondele, J; Krack, M; Mohamed, F; Parrinello, M; Chassaing, T;
 Hutter, J. COMPUTER PHYSICS COMMUNICATIONS, 167 (2), 103-128 (2005). 
 QUICKSTEP: Fast and accurate density functional calculations using a
 mixed Gaussian and plane waves approach.
 https://doi.org/10.1016/j.cpc.2004.12.014

 Frigo, M; Johnson, SG. 
 PROCEEDINGS OF THE IEEE, 93 (2), 216-231 (2005). 
 The design and implementation of FFTW3.
 https://doi.org/10.1109/JPROC.2004.840301

 VandeVondele, J; Hutter, J. 
 JOURNAL OF CHEMICAL PHYSICS, 118 (10), 4365-4369 (2003). 
 An efficient orbital transformation method for electronic structure
 calculations.
 https://doi.org/10.1063/1.1543154

 Hartwigsen, C; Goedecker, S; Hutter, J. 
 PHYSICAL REVIEW B, 58 (7), 3641-3662 (1998). 
 Relativistic separable dual-space Gaussian pseudopotentials from H to Rn.
 https://doi.org/10.1103/PhysRevB.58.3641

 Lippert, G; Hutter, J; Parrinello, M. 
 MOLECULAR PHYSICS, 92 (3), 477-487 (1997). 
 A hybrid Gaussian and plane wave density functional scheme.
 https://doi.org/10.1080/002689797170220

 Goedecker, S; Teter, M; Hutter, J. 
 PHYSICAL REVIEW B, 54 (3), 1703-1710 (1996). 
 Separable dual-space Gaussian pseudopotentials.
 https://doi.org/10.1103/PhysRevB.54.1703

 BECKE, AD. PHYSICAL REVIEW A, 38 (6), 3098-3100 (1988). 
 DENSITY-FUNCTIONAL EXCHANGE-ENERGY APPROXIMATION WITH CORRECT
 ASYMPTOTIC-BEHAVIOR.
 https://doi.org/10.1103/PhysRevA.38.3098

 LEE, CT; YANG, WT; PARR, RG. 
 PHYSICAL REVIEW B, 37 (2), 785-789 (1988). 
 DEVELOPMENT OF THE COLLE-SALVETTI CORRELATION-ENERGY FORMULA INTO A
 FUNCTIONAL OF THE ELECTRON-DENSITY.
 https://doi.org/10.1103/PhysRevB.37.785


 -------------------------------------------------------------------------------
 -                                                                             -
 -                                T I M I N G                                  -
 -                                                                             -
 -------------------------------------------------------------------------------
 SUBROUTINE                       CALLS  ASD         SELF TIME        TOTAL TIME
                                MAXIMUM       AVERAGE  MAXIMUM  AVERAGE  MAXIMUM
 CP2K                                 1  1.0    0.007    0.007   20.137   20.137
 qs_forces                            1  2.0    0.000    0.000   20.076   20.076
 qs_energies                          1  3.0    0.000    0.000   19.570   19.570
 scf_env_do_scf                       1  4.0    0.000    0.000   19.506   19.506
 scf_env_do_scf_inner_loop           36  5.0    0.002    0.002   18.966   18.966
 rebuild_ks_matrix                   37  6.9    0.000    0.000   18.583   18.583
 qs_ks_build_kohn_sham_matrix        37  7.9    0.004    0.004   18.583   18.583
 qs_ks_update_qs_env                 37  6.0    0.000    0.000   18.079   18.079
 xc_vxc_pw_create                   111  9.9    0.434    0.434   14.642   14.642
 low_spin_roks                       37  8.9    0.041    0.041   12.883   12.883
 pw_transfer                       3664 11.9    0.166    0.166   10.534   10.534
 fft_wrap_pw1pw2                   3590 13.0    0.021    0.021   10.343   10.343
 fft_wrap_pw1pw2_170               2258 14.3    0.592    0.592    9.978    9.978
 xc_rho_set_and_dset_create         111 10.9    0.915    0.915    9.121    9.121
 xc_pw_derive                      1332 11.9    0.006    0.006    7.395    7.395
 fft3d_s                           3591 15.0    5.655    5.655    5.667    5.667
 xc_pw_divergence                   222 10.9    0.003    0.003    4.817    4.817
 qs_vxc_create                       37  8.9    0.000    0.000    4.795    4.795
 xc_functional_eval                 222 11.9    0.002    0.002    4.175    4.175
 lyp_lsd_eval                       111 12.9    3.358    3.358    3.358    3.358
 calculate_rho_elec                 222  8.9    0.052    0.052    2.842    2.842
 density_rs2pw                      222  9.9    0.005    0.005    2.439    2.439
 pw_scatter_s                      1813 15.1    2.342    2.342    2.342    2.342
 pw_gather_s                       1777 14.8    1.694    1.694    1.694    1.694
 integrate_v_rspace                 222  9.9    0.004    0.004    1.566    1.566
 potential_pw2rs                    222 10.9    0.007    0.007    1.320    1.320
 pw_derive                         1332 12.9    1.059    1.059    1.059    1.059
 qs_rho_update_rho_low               37  6.0    0.000    0.000    0.996    0.996
 xb88_lsd_eval                      111 12.9    0.816    0.816    0.816    0.816
 pw_copy                           2110 12.1    0.598    0.598    0.598    0.598
 sum_up_and_integrate                37  8.9    0.039    0.039    0.561    0.561
 init_scf_loop                        1  5.0    0.000    0.000    0.540    0.540
 pw_axpy                           2517 11.2    0.523    0.523    0.523    0.523
 qs_ks_update_qs_env_forces           1  3.0    0.000    0.000    0.505    0.505
 dbcsr_multiply_generic            1766 10.9    0.030    0.030    0.488    0.488
 qs_scf_new_mos                      36  6.0    0.000    0.000    0.464    0.464
 qs_scf_loop_do_ot                   36  7.0    0.000    0.000    0.464    0.464
 ot_scf_mini                         36  8.0    0.000    0.000    0.446    0.446
 -------------------------------------------------------------------------------

 The number of warnings for this run is : 0
 
 -------------------------------------------------------------------------------
  **** **** ******  **  PROGRAM ENDED AT                 2022-12-12 18:09:36.910
 ***** ** ***  *** **   PROGRAM RAN ON                           xissand-MS-7A34
 **    ****   ******    PROGRAM RAN BY                                         j
 ***** **    ** ** **   PROGRAM PROCESS ID                                 99611
  **** **  *******  **  PROGRAM STOPPED IN     /home/j/Study/QMComp/HW/3_cp2k/T1
