 DBCSR| CPU Multiplication driver                                           XSMM
 DBCSR| Multrec recursion limit                                              512
 DBCSR| Multiplication stack size                                           1000
 DBCSR| Maximum elements for images                                    UNLIMITED
 DBCSR| Multiplicative factor virtual images                                   1
 DBCSR| Use multiplication densification                                       T
 DBCSR| Multiplication size stacks                                             3
 DBCSR| Use memory pool for CPU allocation                                     F
 DBCSR| Number of 3D layers                                               SINGLE
 DBCSR| Use MPI memory allocation                                              F
 DBCSR| Use RMA algorithm                                                      F
 DBCSR| Use Communication thread                                               T
 DBCSR| Communication thread load                                             87
 DBCSR| MPI: My node id                                                        0
 DBCSR| MPI: Number of nodes                                                   1
 DBCSR| OMP: Current number of threads                                         1
 DBCSR| OMP: Max number of threads                                             1
 DBCSR| Split modifier for TAS multiplication algorithm                  1.0E+00


  **** **** ******  **  PROGRAM STARTED AT               2022-12-12 18:11:31.223
 ***** ** ***  *** **   PROGRAM STARTED ON                       xissand-MS-7A34
 **    ****   ******    PROGRAM STARTED BY                                     j
 ***** **    ** ** **   PROGRAM PROCESS ID                                100166
  **** **  *******  **  PROGRAM STARTED IN     /home/j/Study/QMComp/HW/3_cp2k/T1

 CP2K| version string:                 CP2K version 2022.1 (Development Version)
 CP2K| source code revision number:                                  git:a213519
 CP2K| cp2kflags: omp fftw3 libxc elpa parallel mpi3 scalapack cosma xsmm spglib
 CP2K|             sirius libvori libbqb libvdwxc
 CP2K| is freely available from                            https://www.cp2k.org/
 CP2K| Program compiled at                       Tue Nov  8 04:05:17 PM MSK 2022
 CP2K| Program compiled on                                       xissand-MS-7A34
 CP2K| Program compiled for                                                local
 CP2K| Data directory path                          /home/j/Study/cp2k/cp2k/data
 CP2K| Input file name                                                  cp2k.inp

 GLOBAL| Force Environment number                                              1
 GLOBAL| Basis set file name                                           BASIS_SET
 GLOBAL| Potential file name                                      GTH_POTENTIALS
 GLOBAL| MM Potential file name                                     MM_POTENTIAL
 GLOBAL| Coordinate file name                                      __STD_INPUT__
 GLOBAL| Method name                                                        CP2K
 GLOBAL| Project name                                                 H2_08_1600
 GLOBAL| Run type                                                   ENERGY_FORCE
 GLOBAL| FFT library                                                       FFTW3
 GLOBAL| Diagonalization library                                            ELPA
 GLOBAL| DGEMM library                                                      BLAS
 GLOBAL| Minimum number of eigenvectors for ELPA usage                        16
 GLOBAL| Orthonormality check for eigenvectors                          DISABLED
 GLOBAL| Matrix multiplication library                                     COSMA
 GLOBAL| All-to-all communication in single precision                          F
 GLOBAL| FFTs using library dependent lengths                                  F
 GLOBAL| Grid backend                                                       AUTO
 GLOBAL| Global print level                                                  LOW
 GLOBAL| MPI I/O enabled                                                       T
 GLOBAL| Total number of message passing processes                             1
 GLOBAL| Number of threads for this process                                    1
 GLOBAL| This output is from process                                           0
 GLOBAL| Stack size for threads created by OpenMP (OMP_STACKSIZE)        default
 GLOBAL| CPU model name                    AMD Ryzen 5 1500X Quad-Core Processor
 GLOBAL| CPUID                                                              1002
 GLOBAL| Compiled for CPUID                                                    0

 *** HINT in environment.F:884 :: The compiler target flags (generic) used ***
 *** to build this binary cannot exploit all extensions of this CPU model  ***
 *** (x86_avx2). Consider compiler target flags as part of FCFLAGS and     ***
 *** CFLAGS (ARCH file).                                                   ***


 MEMORY| system memory details [Kb]
 MEMORY|                        rank 0           min           max       average
 MEMORY| MemTotal             16331996      16331996      16331996      16331996
 MEMORY| MemFree               5576284       5576284       5576284       5576284
 MEMORY| Buffers               1154260       1154260       1154260       1154260
 MEMORY| Cached                4298744       4298744       4298744       4298744
 MEMORY| Slab                   804992        804992        804992        804992
 MEMORY| SReclaimable           630500        630500        630500        630500
 MEMORY| MemLikelyFree        11659788      11659788      11659788      11659788


 GENERATE|  Preliminary Number of Bonds generated:                             0
 GENERATE|  Achieved consistency in connectivity generation.

 *******************************************************************************
 *******************************************************************************
 **                                                                           **
 **     #####                         ##              ##                      **
 **    ##   ##            ##          ##              ##                      **
 **   ##     ##                       ##            ######                    **
 **   ##     ##  ##   ##  ##   #####  ##  ##   ####   ##    #####    #####    **
 **   ##     ##  ##   ##  ##  ##      ## ##   ##      ##   ##   ##  ##   ##   **
 **   ##  ## ##  ##   ##  ##  ##      ####     ###    ##   ######   ######    **
 **    ##  ###   ##   ##  ##  ##      ## ##      ##   ##   ##       ##        **
 **     #######   #####   ##   #####  ##  ##  ####    ##    #####   ##        **
 **           ##                                                    ##        **
 **                                                                           **
 **                                                ... make the atoms dance   **
 **                                                                           **
 **            Copyright (C) by CP2K developers group (2000-2022)             **
 **                      J. Chem. Phys. 152, 194103 (2020)                    **
 **                                                                           **
 *******************************************************************************
 
  **************************************
  restricted calculation cutting corners
  experimental feature, check code      
  **************************************


 TOTAL NUMBERS AND MAXIMUM NUMBERS

  Total number of            - Atomic kinds:                                   1
                             - Atoms:                                          2
                             - Shell sets:                                     4
                             - Shells:                                         6
                             - Primitive Cartesian functions:                 10
                             - Cartesian basis functions:                     10
                             - Spherical basis functions:                     10

  Maximum angular momentum of- Orbital basis functions:                        1
                             - Local part of the GTH pseudopotential:          2


 SCF PARAMETERS         Density guess:                                    ATOMIC
                        --------------------------------------------------------
                        max_scf:                                             400
                        max_scf_history:                                       0
                        max_diis:                                              4
                        --------------------------------------------------------
                        eps_scf:                                        1.00E-06
                        eps_scf_history:                                0.00E+00
                        eps_diis:                                       1.00E-01
                        eps_eigval:                                     1.00E-05
                        --------------------------------------------------------
                        level_shift [a.u.]:                             0.000000
                        --------------------------------------------------------
                        No outer SCF

 Spin 1

 Number of electrons:                                                          2
 Number of occupied orbitals:                                                  2
 Number of molecular orbitals:                                                 2

 Spin 2

 Number of electrons:                                                          0
 Number of occupied orbitals:                                                  0
 Number of molecular orbitals:                                                 0

 Number of orbital functions:                                                 10
 Number of independent orbital functions:                                     10

 Extrapolation method: initial_guess


 SCF WAVEFUNCTION OPTIMIZATION

  ----------------------------------- OT ---------------------------------------
  Allowing for rotations 
  Minimizer      : DIIS                : direct inversion
                                         in the iterative subspace
                                         using   7 DIIS vectors
                                         safer DIIS on
  Preconditioner : FULL_SINGLE         : diagonalization based
  Precond_solver : DEFAULT
  stepsize       :    0.15000000                  energy_gap     :    0.20000000
  eps_taylor     :   0.10000E-15                  max_taylor     :             4
  ----------------------------------- OT ---------------------------------------

  Step     Update method      Time    Convergence         Total energy    Change
  ------------------------------------------------------------------------------
     1 OT DIIS     0.15E+00    0.6     0.03371162        -0.8255280320 -8.26E-01
     2 OT DIIS     0.15E+00    0.6     0.02666158        -0.8285530955 -3.03E-03
     3 OT SD       0.15E+00    0.5     0.02114161        -0.8333260355 -4.77E-03
     4 OT SD       0.15E+00    0.6     0.02400098        -0.8347583483 -1.43E-03
     5 OT SD       0.15E+00    0.6     0.02716347        -0.8365987020 -1.84E-03
     6 OT SD       0.15E+00    0.6     0.03077936        -0.8389588554 -2.36E-03
     7 OT SD       0.15E+00    0.6     0.03476712        -0.8419856143 -3.03E-03
     8 OT SD       0.15E+00    0.6     0.03899777        -0.8458354118 -3.85E-03
     9 OT SD       0.15E+00    0.6     0.04330596        -0.8506548198 -4.82E-03
    10 OT SD       0.15E+00    0.6     0.04751434        -0.8565607853 -5.91E-03
    11 OT SD       0.15E+00    0.6     0.05185772        -0.8636453848 -7.08E-03
    12 OT SD       0.15E+00    0.6     0.05510596        -0.8719790540 -8.33E-03
    13 OT SD       0.15E+00    0.6     0.05742862        -0.8812962971 -9.32E-03
    14 OT SD       0.15E+00    0.6     0.05865618        -0.8913125435 -1.00E-02
    15 OT SD       0.15E+00    0.6     0.05917533        -0.9016934439 -1.04E-02
    16 OT SD       0.15E+00    0.6     0.05802294        -0.9121167856 -1.04E-02
    17 OT SD       0.15E+00    0.6     0.05567785        -0.9220281196 -9.91E-03
    18 OT SD       0.15E+00    0.6     0.05280049        -0.9310984275 -9.07E-03
    19 OT DIIS     0.15E+00    0.6     0.04859064        -0.9391433662 -8.04E-03
    20 OT DIIS     0.15E+00    0.6     0.05310060        -0.9407011325 -1.56E-03
    21 OT DIIS     0.15E+00    0.6     0.03199868        -0.9605442957 -1.98E-02
    22 OT SD       0.15E+00    0.6     0.10544139        -0.8819990207  7.85E-02
    23 OT DIIS     0.15E+00    0.6     0.07930166        -0.9109580531 -2.90E-02
    24 OT DIIS     0.15E+00    0.6     0.05212609        -0.9506857876 -3.97E-02
    25 OT DIIS     0.15E+00    0.5     0.03209551        -0.9616394584 -1.10E-02
    26 OT DIIS     0.15E+00    0.5     0.04454141        -0.9549794634  6.66E-03
    27 OT DIIS     0.15E+00    0.5     0.01860710        -0.9660836044 -1.11E-02
    28 OT DIIS     0.15E+00    0.5     0.01599257        -0.9664658218 -3.82E-04
    29 OT DIIS     0.15E+00    0.6     0.01481189        -0.9667201806 -2.54E-04
    30 OT DIIS     0.15E+00    0.6     0.01302167        -0.9671144793 -3.94E-04
    31 OT DIIS     0.15E+00    0.6     0.01174734        -0.9673021340 -1.88E-04
    32 OT DIIS     0.15E+00    0.6     0.00420584        -0.9677609547 -4.59E-04
    33 OT DIIS     0.15E+00    0.6     0.00192576        -0.9678078955 -4.69E-05
    34 OT DIIS     0.15E+00    0.6     0.00120423        -0.9678160575 -8.16E-06
    35 OT DIIS     0.15E+00    0.6     0.00048522        -0.9678225464 -6.49E-06
    36 OT DIIS     0.15E+00    0.6     0.00022522        -0.9678232811 -7.35E-07
    37 OT DIIS     0.15E+00    0.6     0.00007325        -0.9678235956 -3.15E-07
    38 OT DIIS     0.15E+00    0.5     0.00003232        -0.9678236095 -1.38E-08
    39 OT DIIS     0.15E+00    0.6     0.00001726        -0.9678236136 -4.13E-09
    40 OT DIIS     0.15E+00    0.6     0.00000459        -0.9678236149 -1.26E-09
    41 OT SD       0.15E+00    0.6     0.00001296        -0.9678236181 -3.21E-09
    42 OT DIIS     0.15E+00    0.6     0.00000205        -0.9678236183 -2.40E-10
    43 OT SD       0.15E+00    0.6     0.00001035        -0.9678236172  1.10E-09
    44 OT DIIS     0.15E+00    0.6     0.00000540        -0.9678236175 -2.49E-10
    45 OT DIIS     0.15E+00    0.5     0.00000326        -0.9678236175 -6.28E-11
    46 OT DIIS     0.15E+00    0.5     0.00000137        -0.9678236175 -3.05E-11
    47 OT DIIS     0.15E+00    0.6     0.00000073        -0.9678236175 -3.39E-12

  *** SCF run converged in    47 steps ***


  Electronic density on regular grids:         -1.9999999998        0.0000000002
  Core density on regular grids:                1.9999999999       -0.0000000001
  Total charge density on r-space grids:        0.0000000001
  Total charge density g-space grids:           0.0000000001

  Overlap energy of the core charge distribution:               0.00000000000000
  Self energy of the core charge distribution:                 -2.82094791773878
  Core Hamiltonian energy:                                      1.00333380573453
  Hartree energy:                                               1.50502937756950
  Exchange-correlation energy:                                 -0.65523888311415

  Total energy:                                                -0.96782361754890

  Integrated absolute spin density  :                               1.9999999998
  Ideal and single determinant S**2 :                    2.000000       2.000000

 ENERGY| Total FORCE_EVAL ( QS ) energy [a.u.]:               -0.967823617549636

 -------------------------------------------------------------------------------
 -                                                                             -
 -                                DBCSR STATISTICS                             -
 -                                                                             -
 -------------------------------------------------------------------------------
 COUNTER                                    TOTAL       BLAS       SMM       ACC
 flops     2 x     2 x     2                17040      22.2%     77.8%      0.0%
 flops     2 x     2 x    10                18800       0.0%    100.0%      0.0%
 flops    10 x     2 x    10                19200       0.0%    100.0%      0.0%
 flops    10 x     2 x     2                22480       0.0%    100.0%      0.0%
 flops     5 x     5 x     2                72300       0.0%    100.0%      0.0%
 flops     5 x     2 x     5               116800       0.0%    100.0%      0.0%
 flops inhomo. stacks                           0       0.0%      0.0%      0.0%
 flops total                       266.620000E+03       1.4%     98.6%      0.0%
 flops max/rank                    266.620000E+03       1.4%     98.6%      0.0%
 matmuls inhomo. stacks                         0       0.0%      0.0%      0.0%
 matmuls total                               3520       6.7%     93.3%      0.0%
 number of processed stacks                  2162      10.9%     89.1%      0.0%
 average stack size                                     1.0       1.7       0.0
 marketing flops                   290.800000E+03
 -------------------------------------------------------------------------------
 # multiplications                           2258
 max memory usage/rank             273.408000E+06
 # max total images/rank                        1
 # max 3D layers                                1
 # MPI messages exchanged                       0
 -------------------------------------------------------------------------------
 -                                                                             -
 -                      DBCSR MESSAGE PASSING PERFORMANCE                      -
 -                                                                             -
 -------------------------------------------------------------------------------
 ROUTINE             CALLS      AVE VOLUME [Bytes]
 MP_Bcast                7                     12.
 MP_Allreduce        11779                      8.
 MP_Alltoall          9691                     32.
 MP_ISend             8744                     33.
 MP_IRecv             8744                     33.
 -------------------------------------------------------------------------------

 -------------------------------------------------------------------------------
 -                                                                             -
 -                                DBM STATISTICS                               -
 -                                                                             -
 -------------------------------------------------------------------------------
    M  x    N  x    K                                          COUNT     PERCENT
 -------------------------------------------------------------------------------

 -------------------------------------------------------------------------------
 -                                                                             -
 -                                GRID STATISTICS                              -
 -                                                                             -
 -------------------------------------------------------------------------------
 LP    KERNEL             BACKEND                              COUNT     PERCENT
 0     collocate ortho    REF                                  49536      34.96%
 0     integrate ortho    REF                                  48504      34.23%
 1     integrate ortho    REF                                  20772      14.66%
 1     collocate ortho    REF                                  20160      14.23%
 2     integrate ortho    REF                                   1548       1.09%
 2     collocate ortho    REF                                   1152       0.81%
 3     integrate ortho    REF                                     24       0.02%
 0     collocate general  REF                                      2       0.00%
 1     integrate general  REF                                      2       0.00%
 -------------------------------------------------------------------------------

 MEMORY| Estimated peak process memory [MiB]                                 261

 -------------------------------------------------------------------------------
 -                                                                             -
 -                         MESSAGE PASSING PERFORMANCE                         -
 -                                                                             -
 -------------------------------------------------------------------------------

 ROUTINE             CALLS      AVE VOLUME [Bytes]
 MP_Group                4
 MP_Bcast              234                   1740.
 MP_Allreduce         1268                      8.
 MP_Sync                 7
 -------------------------------------------------------------------------------


 -------------------------------------------------------------------------------
 -                                                                             -
 -                           R E F E R E N C E S                               -
 -                                                                             -
 -------------------------------------------------------------------------------
 
 CP2K version 2022.1 (Development Version), the CP2K developers group (2022).
 CP2K is freely available from https://www.cp2k.org/ .

 Kuehne,Thomas D.; Iannuzzi,Marcella; Del Ben,Mauro;
 Rybkin,Vladimir V.; Seewald,Patrick; Stein,Frederick; Laino,Teodoro;
 Khaliullin,Rustam Z.; Schuett,Ole; Schiffmann,Florian; Golze,Dorothea;
 Wilhelm,Jan; Chulkov,Sergey; Bani-Hashemian,Mohammad Hossein;
 Weber,Valery; Borstnik,Urban; Taillefumier,Mathieu;
 Jakobovits,Alice Shoshana; Lazzaro,Alfio; Pabst,Hans; Mueller,Tiziano;
 Schade,Robert; Guidon,Manuel; Andermatt,Samuel; Holmberg,Nico;
 Schenter,Gregory K.; Hehn,Anna; Bussy,Augustin; Belleflamme,Fabian;
 Tabacchi,Gloria; Gloess,Andreas; Lass,Michael; Bethune,Iain;
 Mundy,Christopher J.; Plessl,Christian; Watkins,Matt;
 VandeVondele,Joost; Krack,Matthias; Hutter,Juerg. 
 The Journal of Chemical Physics, 152 (19), (2020). 
 CP2K: An electronic structure and molecular dynamics software package -
 Quickstep: Efficient and accurate electronic structure calculations.
 https://doi.org/10.1063/5.0007045

 Schuett, Ole; Messmer, Peter; Hutter, Juerg; VandeVondele, Joost. 
 Electronic Structure Calculations on Graphics Processing Units, John
 Wiley & Sons, Ltd, 173-190 (2016). 
 GPU-Accelerated Sparse Matrix-Matrix Multiplication for
 Linear Scaling Density Functional Theory.
 https://doi.org/10.1002/9781118670712.ch8

 Heinecke, A; Henry, G; Hutchinson, M; Pabst, H. 
 Proceedings of Intl. Supercomputing Conference, 981-991 (2016). 
 LIBXSMM: Accelerating Small Matrix Multiplications
 by Runtime Code Generation.
 https://doi.org/10.1109/SC.2016.83

 Borstnik, U; VandeVondele, J; Weber, V; Hutter, J. 
 PARALLEL COMPUTING, 40 (5-6), 47-58 (2014). 
 Sparse matrix multiplication: The distributed block-compressed sparse
 row library.
 https://doi.org/10.1016/j.parco.2014.03.012

 Hutter, J; Iannuzzi, M; Schiffmann, F; VandeVondele, J. 
 WIREs Comput Mol Sci., 4 (1), 15-25 (2014). 
 CP2K: atomistic simulations of condensed matter systems.
 https://doi.org/10.1002/wcms.1159

 Marek, A; Blum, V; Johanni, R; Havu, V; Lang, B; Auckenthaler, T;
 Heinecke, A; Bungartz, H; Lederer, H. 
 Journal of Physics: Condensed Matter, 26 (21), (2014). 
 The ELPA library: scalable parallel eigenvalue solutions for
 electronic structure
 theory and computational science.
 https://doi.org/10.1088/0953-8984/26/21/213201

 Krack, M. 
 THEORETICAL CHEMISTRY ACCOUNTS, 114 (1-3), 145-152 (2005). 
 Pseudopotentials for H to Kr optimized for gradient-corrected
 exchange-correlation functionals.
 https://doi.org/10.1007/s00214-005-0655-y

 VandeVondele, J; Krack, M; Mohamed, F; Parrinello, M; Chassaing, T;
 Hutter, J. COMPUTER PHYSICS COMMUNICATIONS, 167 (2), 103-128 (2005). 
 QUICKSTEP: Fast and accurate density functional calculations using a
 mixed Gaussian and plane waves approach.
 https://doi.org/10.1016/j.cpc.2004.12.014

 Frigo, M; Johnson, SG. 
 PROCEEDINGS OF THE IEEE, 93 (2), 216-231 (2005). 
 The design and implementation of FFTW3.
 https://doi.org/10.1109/JPROC.2004.840301

 VandeVondele, J; Hutter, J. 
 JOURNAL OF CHEMICAL PHYSICS, 118 (10), 4365-4369 (2003). 
 An efficient orbital transformation method for electronic structure
 calculations.
 https://doi.org/10.1063/1.1543154

 Hartwigsen, C; Goedecker, S; Hutter, J. 
 PHYSICAL REVIEW B, 58 (7), 3641-3662 (1998). 
 Relativistic separable dual-space Gaussian pseudopotentials from H to Rn.
 https://doi.org/10.1103/PhysRevB.58.3641

 Lippert, G; Hutter, J; Parrinello, M. 
 MOLECULAR PHYSICS, 92 (3), 477-487 (1997). 
 A hybrid Gaussian and plane wave density functional scheme.
 https://doi.org/10.1080/002689797170220

 Goedecker, S; Teter, M; Hutter, J. 
 PHYSICAL REVIEW B, 54 (3), 1703-1710 (1996). 
 Separable dual-space Gaussian pseudopotentials.
 https://doi.org/10.1103/PhysRevB.54.1703

 BECKE, AD. PHYSICAL REVIEW A, 38 (6), 3098-3100 (1988). 
 DENSITY-FUNCTIONAL EXCHANGE-ENERGY APPROXIMATION WITH CORRECT
 ASYMPTOTIC-BEHAVIOR.
 https://doi.org/10.1103/PhysRevA.38.3098

 LEE, CT; YANG, WT; PARR, RG. 
 PHYSICAL REVIEW B, 37 (2), 785-789 (1988). 
 DEVELOPMENT OF THE COLLE-SALVETTI CORRELATION-ENERGY FORMULA INTO A
 FUNCTIONAL OF THE ELECTRON-DENSITY.
 https://doi.org/10.1103/PhysRevB.37.785


 -------------------------------------------------------------------------------
 -                                                                             -
 -                                T I M I N G                                  -
 -                                                                             -
 -------------------------------------------------------------------------------
 SUBROUTINE                       CALLS  ASD         SELF TIME        TOTAL TIME
                                MAXIMUM       AVERAGE  MAXIMUM  AVERAGE  MAXIMUM
 CP2K                                 1  1.0    0.008    0.008   27.584   27.584
 qs_forces                            1  2.0    0.000    0.000   27.521   27.521
 qs_energies                          1  3.0    0.000    0.000   27.007   27.007
 scf_env_do_scf                       1  4.0    0.000    0.000   26.940   26.940
 scf_env_do_scf_inner_loop           47  5.0    0.003    0.003   26.352   26.352
 rebuild_ks_matrix                   48  6.9    0.000    0.000   25.522   25.522
 qs_ks_build_kohn_sham_matrix        48  7.9    0.005    0.005   25.521   25.521
 qs_ks_update_qs_env                 48  6.0    0.000    0.000   25.009   25.009
 xc_vxc_pw_create                   144  9.9    0.572    0.572   20.089   20.089
 low_spin_roks                       48  8.9    0.055    0.055   17.745   17.745
 pw_transfer                       4753 11.9    0.219    0.219   14.685   14.685
 fft_wrap_pw1pw2                   4657 13.0    0.028    0.028   14.432   14.432
 fft_wrap_pw1pw2_170               2929 14.3    0.789    0.789   13.924   13.924
 xc_rho_set_and_dset_create         144 10.9    1.232    1.232   12.419   12.419
 xc_pw_derive                      1728 11.9    0.009    0.009   10.239   10.239
 fft3d_s                           4658 15.0    7.784    7.784    7.800    7.800
 xc_pw_divergence                   288 10.9    0.004    0.004    6.736    6.736
 qs_vxc_create                       48  8.9    0.001    0.001    6.547    6.547
 xc_functional_eval                 288 11.9    0.002    0.002    5.713    5.713
 lyp_lsd_eval                       144 12.9    4.617    4.617    4.617    4.617
 calculate_rho_elec                 288  9.0    0.070    0.070    3.935    3.935
 density_rs2pw                      288 10.0    0.007    0.007    3.401    3.401
 pw_scatter_s                      2352 15.1    3.167    3.167    3.167    3.167
 pw_gather_s                       2305 14.8    2.613    2.613    2.613    2.613
 integrate_v_rspace                 288  9.9    0.006    0.006    2.172    2.172
 potential_pw2rs                    288 10.9    0.010    0.010    1.842    1.842
 pw_derive                         1728 12.9    1.420    1.420    1.420    1.420
 qs_rho_update_rho_low               48  6.0    0.000    0.000    1.371    1.371
 xb88_lsd_eval                      144 12.9    1.094    1.094    1.094    1.094
 pw_copy                           2737 12.2    0.792    0.792    0.792    0.792
 sum_up_and_integrate                48  8.9    0.053    0.053    0.773    0.773
 pw_axpy                           3265 11.2    0.694    0.694    0.694    0.694
 dbcsr_multiply_generic            2258 10.8    0.040    0.040    0.620    0.620
 qs_scf_new_mos                      47  6.0    0.000    0.000    0.593    0.593
 qs_scf_loop_do_ot                   47  7.0    0.000    0.000    0.593    0.593
 init_scf_loop                        1  5.0    0.000    0.000    0.588    0.588
 ot_scf_mini                         47  8.0    0.001    0.001    0.570    0.570
 -------------------------------------------------------------------------------

 The number of warnings for this run is : 0
 
 -------------------------------------------------------------------------------
  **** **** ******  **  PROGRAM ENDED AT                 2022-12-12 18:11:59.333
 ***** ** ***  *** **   PROGRAM RAN ON                           xissand-MS-7A34
 **    ****   ******    PROGRAM RAN BY                                         j
 ***** **    ** ** **   PROGRAM PROCESS ID                                100166
  **** **  *******  **  PROGRAM STOPPED IN     /home/j/Study/QMComp/HW/3_cp2k/T1
