 DBCSR| CPU Multiplication driver                                           XSMM
 DBCSR| Multrec recursion limit                                              512
 DBCSR| Multiplication stack size                                           1000
 DBCSR| Maximum elements for images                                    UNLIMITED
 DBCSR| Multiplicative factor virtual images                                   1
 DBCSR| Use multiplication densification                                       T
 DBCSR| Multiplication size stacks                                             3
 DBCSR| Use memory pool for CPU allocation                                     F
 DBCSR| Number of 3D layers                                               SINGLE
 DBCSR| Use MPI memory allocation                                              F
 DBCSR| Use RMA algorithm                                                      F
 DBCSR| Use Communication thread                                               T
 DBCSR| Communication thread load                                             87
 DBCSR| MPI: My node id                                                        0
 DBCSR| MPI: Number of nodes                                                   1
 DBCSR| OMP: Current number of threads                                         1
 DBCSR| OMP: Max number of threads                                             1
 DBCSR| Split modifier for TAS multiplication algorithm                  1.0E+00


  **** **** ******  **  PROGRAM STARTED AT               2022-12-12 18:07:59.051
 ***** ** ***  *** **   PROGRAM STARTED ON                       xissand-MS-7A34
 **    ****   ******    PROGRAM STARTED BY                                     j
 ***** **    ** ** **   PROGRAM PROCESS ID                                 99228
  **** **  *******  **  PROGRAM STARTED IN     /home/j/Study/QMComp/HW/3_cp2k/T1

 CP2K| version string:                 CP2K version 2022.1 (Development Version)
 CP2K| source code revision number:                                  git:a213519
 CP2K| cp2kflags: omp fftw3 libxc elpa parallel mpi3 scalapack cosma xsmm spglib
 CP2K|             sirius libvori libbqb libvdwxc
 CP2K| is freely available from                            https://www.cp2k.org/
 CP2K| Program compiled at                       Tue Nov  8 04:05:17 PM MSK 2022
 CP2K| Program compiled on                                       xissand-MS-7A34
 CP2K| Program compiled for                                                local
 CP2K| Data directory path                          /home/j/Study/cp2k/cp2k/data
 CP2K| Input file name                                                  cp2k.inp

 GLOBAL| Force Environment number                                              1
 GLOBAL| Basis set file name                                           BASIS_SET
 GLOBAL| Potential file name                                      GTH_POTENTIALS
 GLOBAL| MM Potential file name                                     MM_POTENTIAL
 GLOBAL| Coordinate file name                                      __STD_INPUT__
 GLOBAL| Method name                                                        CP2K
 GLOBAL| Project name                                                 H2_08_1600
 GLOBAL| Run type                                                   ENERGY_FORCE
 GLOBAL| FFT library                                                       FFTW3
 GLOBAL| Diagonalization library                                            ELPA
 GLOBAL| DGEMM library                                                      BLAS
 GLOBAL| Minimum number of eigenvectors for ELPA usage                        16
 GLOBAL| Orthonormality check for eigenvectors                          DISABLED
 GLOBAL| Matrix multiplication library                                     COSMA
 GLOBAL| All-to-all communication in single precision                          F
 GLOBAL| FFTs using library dependent lengths                                  F
 GLOBAL| Grid backend                                                       AUTO
 GLOBAL| Global print level                                                  LOW
 GLOBAL| MPI I/O enabled                                                       T
 GLOBAL| Total number of message passing processes                             1
 GLOBAL| Number of threads for this process                                    1
 GLOBAL| This output is from process                                           0
 GLOBAL| Stack size for threads created by OpenMP (OMP_STACKSIZE)        default
 GLOBAL| CPU model name                    AMD Ryzen 5 1500X Quad-Core Processor
 GLOBAL| CPUID                                                              1002
 GLOBAL| Compiled for CPUID                                                    0

 *** HINT in environment.F:884 :: The compiler target flags (generic) used ***
 *** to build this binary cannot exploit all extensions of this CPU model  ***
 *** (x86_avx2). Consider compiler target flags as part of FCFLAGS and     ***
 *** CFLAGS (ARCH file).                                                   ***


 MEMORY| system memory details [Kb]
 MEMORY|                        rank 0           min           max       average
 MEMORY| MemTotal             16331996      16331996      16331996      16331996
 MEMORY| MemFree               5911300       5911300       5911300       5911300
 MEMORY| Buffers               1152676       1152676       1152676       1152676
 MEMORY| Cached                4249956       4249956       4249956       4249956
 MEMORY| Slab                   801276        801276        801276        801276
 MEMORY| SReclaimable           628136        628136        628136        628136
 MEMORY| MemLikelyFree        11942068      11942068      11942068      11942068


 GENERATE|  Preliminary Number of Bonds generated:                             0
 GENERATE|  Achieved consistency in connectivity generation.

 *******************************************************************************
 *******************************************************************************
 **                                                                           **
 **     #####                         ##              ##                      **
 **    ##   ##            ##          ##              ##                      **
 **   ##     ##                       ##            ######                    **
 **   ##     ##  ##   ##  ##   #####  ##  ##   ####   ##    #####    #####    **
 **   ##     ##  ##   ##  ##  ##      ## ##   ##      ##   ##   ##  ##   ##   **
 **   ##  ## ##  ##   ##  ##  ##      ####     ###    ##   ######   ######    **
 **    ##  ###   ##   ##  ##  ##      ## ##      ##   ##   ##       ##        **
 **     #######   #####   ##   #####  ##  ##  ####    ##    #####   ##        **
 **           ##                                                    ##        **
 **                                                                           **
 **                                                ... make the atoms dance   **
 **                                                                           **
 **            Copyright (C) by CP2K developers group (2000-2022)             **
 **                      J. Chem. Phys. 152, 194103 (2020)                    **
 **                                                                           **
 *******************************************************************************
 
  **************************************
  restricted calculation cutting corners
  experimental feature, check code      
  **************************************


 TOTAL NUMBERS AND MAXIMUM NUMBERS

  Total number of            - Atomic kinds:                                   1
                             - Atoms:                                          2
                             - Shell sets:                                     4
                             - Shells:                                         6
                             - Primitive Cartesian functions:                 10
                             - Cartesian basis functions:                     10
                             - Spherical basis functions:                     10

  Maximum angular momentum of- Orbital basis functions:                        1
                             - Local part of the GTH pseudopotential:          2


 SCF PARAMETERS         Density guess:                                    ATOMIC
                        --------------------------------------------------------
                        max_scf:                                             400
                        max_scf_history:                                       0
                        max_diis:                                              4
                        --------------------------------------------------------
                        eps_scf:                                        1.00E-06
                        eps_scf_history:                                0.00E+00
                        eps_diis:                                       1.00E-01
                        eps_eigval:                                     1.00E-05
                        --------------------------------------------------------
                        level_shift [a.u.]:                             0.000000
                        --------------------------------------------------------
                        No outer SCF

 Spin 1

 Number of electrons:                                                          2
 Number of occupied orbitals:                                                  2
 Number of molecular orbitals:                                                 2

 Spin 2

 Number of electrons:                                                          0
 Number of occupied orbitals:                                                  0
 Number of molecular orbitals:                                                 0

 Number of orbital functions:                                                 10
 Number of independent orbital functions:                                     10

 Extrapolation method: initial_guess


 SCF WAVEFUNCTION OPTIMIZATION

  ----------------------------------- OT ---------------------------------------
  Allowing for rotations 
  Minimizer      : DIIS                : direct inversion
                                         in the iterative subspace
                                         using   7 DIIS vectors
                                         safer DIIS on
  Preconditioner : FULL_SINGLE         : diagonalization based
  Precond_solver : DEFAULT
  stepsize       :    0.15000000                  energy_gap     :    0.20000000
  eps_taylor     :   0.10000E-15                  max_taylor     :             4
  ----------------------------------- OT ---------------------------------------

  Step     Update method      Time    Convergence         Total energy    Change
  ------------------------------------------------------------------------------
     1 OT DIIS     0.15E+00    0.6     0.07059935        -0.7727085319 -7.73E-01
     2 OT DIIS     0.15E+00    0.5     0.05564775        -0.7860125953 -1.33E-02
     3 OT DIIS     0.15E+00    0.6     0.03299309        -0.8067080076 -2.07E-02
     4 OT SD       0.15E+00    0.6     0.04524971        -0.8167368203 -1.00E-02
     5 OT SD       0.15E+00    0.7     0.04632550        -0.8229081428 -6.17E-03
     6 OT SD       0.15E+00    0.6     0.04853357        -0.8295026104 -6.59E-03
     7 OT SD       0.15E+00    0.6     0.05012426        -0.8366854236 -7.18E-03
     8 OT SD       0.15E+00    0.7     0.05128138        -0.8443145578 -7.63E-03
     9 OT DIIS     0.15E+00    0.7     0.05184950        -0.8522511686 -7.94E-03
    10 OT DIIS     0.15E+00    0.6     0.03388234        -0.9076086944 -5.54E-02
    11 OT SD       0.15E+00    0.6     0.08825614        -0.8875298466  2.01E-02
    12 OT DIIS     0.15E+00    0.6     0.05266058        -0.9062098317 -1.87E-02
    13 OT SD       0.15E+00    0.6     0.04570242        -0.8975910453  8.62E-03
    14 OT SD       0.15E+00    0.6     0.03657355        -0.9031919210 -5.60E-03
    15 OT DIIS     0.15E+00    0.6     0.03034425        -0.9068494594 -3.66E-03
    16 OT DIIS     0.15E+00    0.6     0.04030650        -0.9062524037  5.97E-04
    17 OT SD       0.15E+00    0.6     0.00620625        -0.9168715256 -1.06E-02
    18 OT DIIS     0.15E+00    0.6     0.00386725        -0.9169645379 -9.30E-05
    19 OT DIIS     0.15E+00    0.6     0.00085991        -0.9170499531 -8.54E-05
    20 OT DIIS     0.15E+00    0.6     0.00101597        -0.9170483054  1.65E-06
    21 OT DIIS     0.15E+00    0.6     0.00120501        -0.9170453293  2.98E-06
    22 OT DIIS     0.15E+00    0.6     0.00011691        -0.9170528153 -7.49E-06
    23 OT DIIS     0.15E+00    0.6     0.00010306        -0.9170528347 -1.94E-08
    24 OT DIIS     0.15E+00    0.6     0.00001174        -0.9170528726 -3.79E-08
    25 OT DIIS     0.15E+00    0.7     0.00000494        -0.9170528730 -3.86E-10
    26 OT DIIS     0.15E+00    0.6     0.00000261        -0.9170528731 -9.73E-11
    27 OT DIIS     0.15E+00    0.6     0.00000118        -0.9170528731 -2.26E-11
    28 OT DIIS     0.15E+00    0.6     0.00000130        -0.9170528731  2.51E-12
    29 OT DIIS     0.15E+00    0.6     0.00000003        -0.9170528731 -9.00E-12

  *** SCF run converged in    29 steps ***


  Electronic density on regular grids:         -1.9999999995        0.0000000005
  Core density on regular grids:                1.9999999999       -0.0000000001
  Total charge density on r-space grids:        0.0000000004
  Total charge density g-space grids:           0.0000000004

  Overlap energy of the core charge distribution:               0.00000000000000
  Self energy of the core charge distribution:                 -2.82094791773878
  Core Hamiltonian energy:                                      1.08234303254252
  Hartree energy:                                               1.49352851504215
  Exchange-correlation energy:                                 -0.67197650296550

  Total energy:                                                -0.91705287311961

  Integrated absolute spin density  :                               1.9999999995
  Ideal and single determinant S**2 :                    2.000000       2.000000

 ENERGY| Total FORCE_EVAL ( QS ) energy [a.u.]:               -0.917052873119617

 -------------------------------------------------------------------------------
 -                                                                             -
 -                                DBCSR STATISTICS                             -
 -                                                                             -
 -------------------------------------------------------------------------------
 COUNTER                                    TOTAL       BLAS       SMM       ACC
 flops     2 x     2 x     2                10096      23.1%     76.9%      0.0%
 flops     2 x     2 x    10                11600       0.0%    100.0%      0.0%
 flops    10 x     2 x    10                12000       0.0%    100.0%      0.0%
 flops    10 x     2 x     2                13840       0.0%    100.0%      0.0%
 flops     5 x     5 x     2                45300       0.0%    100.0%      0.0%
 flops     5 x     2 x     5                73600       0.0%    100.0%      0.0%
 flops inhomo. stacks                           0       0.0%      0.0%      0.0%
 flops total                       166.436000E+03       1.4%     98.6%      0.0%
 flops max/rank                    166.436000E+03       1.4%     98.6%      0.0%
 matmuls inhomo. stacks                         0       0.0%      0.0%      0.0%
 matmuls total                               2168       6.7%     93.3%      0.0%
 number of processed stacks                  1314      11.1%     88.9%      0.0%
 average stack size                                     1.0       1.7       0.0
 marketing flops                   181.616000E+03
 -------------------------------------------------------------------------------
 # multiplications                           1374
 max memory usage/rank             273.592320E+06
 # max total images/rank                        1
 # max 3D layers                                1
 # MPI messages exchanged                       0
 -------------------------------------------------------------------------------
 -                                                                             -
 -                      DBCSR MESSAGE PASSING PERFORMANCE                      -
 -                                                                             -
 -------------------------------------------------------------------------------
 ROUTINE             CALLS      AVE VOLUME [Bytes]
 MP_Bcast                7                     12.
 MP_Allreduce         7161                      8.
 MP_Alltoall          6135                     34.
 MP_ISend             5316                     33.
 MP_IRecv             5316                     33.
 -------------------------------------------------------------------------------

 -------------------------------------------------------------------------------
 -                                                                             -
 -                                DBM STATISTICS                               -
 -                                                                             -
 -------------------------------------------------------------------------------
    M  x    N  x    K                                          COUNT     PERCENT
 -------------------------------------------------------------------------------

 -------------------------------------------------------------------------------
 -                                                                             -
 -                                GRID STATISTICS                              -
 -                                                                             -
 -------------------------------------------------------------------------------
 LP    KERNEL             BACKEND                              COUNT     PERCENT
 0     collocate ortho    REF                                  33480      35.77%
 0     integrate ortho    REF                                  32364      34.58%
 1     integrate ortho    REF                                  13296      14.20%
 1     collocate ortho    REF                                  12600      13.46%
 2     integrate ortho    REF                                   1116       1.19%
 2     collocate ortho    REF                                    720       0.77%
 3     integrate ortho    REF                                     24       0.03%
 0     collocate general  REF                                      2       0.00%
 1     integrate general  REF                                      2       0.00%
 -------------------------------------------------------------------------------

 MEMORY| Estimated peak process memory [MiB]                                 261

 -------------------------------------------------------------------------------
 -                                                                             -
 -                         MESSAGE PASSING PERFORMANCE                         -
 -                                                                             -
 -------------------------------------------------------------------------------

 ROUTINE             CALLS      AVE VOLUME [Bytes]
 MP_Group                4
 MP_Bcast              170                   1498.
 MP_Allreduce         1012                      9.
 MP_Sync                13
 -------------------------------------------------------------------------------


 -------------------------------------------------------------------------------
 -                                                                             -
 -                           R E F E R E N C E S                               -
 -                                                                             -
 -------------------------------------------------------------------------------
 
 CP2K version 2022.1 (Development Version), the CP2K developers group (2022).
 CP2K is freely available from https://www.cp2k.org/ .

 Kuehne,Thomas D.; Iannuzzi,Marcella; Del Ben,Mauro;
 Rybkin,Vladimir V.; Seewald,Patrick; Stein,Frederick; Laino,Teodoro;
 Khaliullin,Rustam Z.; Schuett,Ole; Schiffmann,Florian; Golze,Dorothea;
 Wilhelm,Jan; Chulkov,Sergey; Bani-Hashemian,Mohammad Hossein;
 Weber,Valery; Borstnik,Urban; Taillefumier,Mathieu;
 Jakobovits,Alice Shoshana; Lazzaro,Alfio; Pabst,Hans; Mueller,Tiziano;
 Schade,Robert; Guidon,Manuel; Andermatt,Samuel; Holmberg,Nico;
 Schenter,Gregory K.; Hehn,Anna; Bussy,Augustin; Belleflamme,Fabian;
 Tabacchi,Gloria; Gloess,Andreas; Lass,Michael; Bethune,Iain;
 Mundy,Christopher J.; Plessl,Christian; Watkins,Matt;
 VandeVondele,Joost; Krack,Matthias; Hutter,Juerg. 
 The Journal of Chemical Physics, 152 (19), (2020). 
 CP2K: An electronic structure and molecular dynamics software package -
 Quickstep: Efficient and accurate electronic structure calculations.
 https://doi.org/10.1063/5.0007045

 Schuett, Ole; Messmer, Peter; Hutter, Juerg; VandeVondele, Joost. 
 Electronic Structure Calculations on Graphics Processing Units, John
 Wiley & Sons, Ltd, 173-190 (2016). 
 GPU-Accelerated Sparse Matrix-Matrix Multiplication for
 Linear Scaling Density Functional Theory.
 https://doi.org/10.1002/9781118670712.ch8

 Heinecke, A; Henry, G; Hutchinson, M; Pabst, H. 
 Proceedings of Intl. Supercomputing Conference, 981-991 (2016). 
 LIBXSMM: Accelerating Small Matrix Multiplications
 by Runtime Code Generation.
 https://doi.org/10.1109/SC.2016.83

 Borstnik, U; VandeVondele, J; Weber, V; Hutter, J. 
 PARALLEL COMPUTING, 40 (5-6), 47-58 (2014). 
 Sparse matrix multiplication: The distributed block-compressed sparse
 row library.
 https://doi.org/10.1016/j.parco.2014.03.012

 Hutter, J; Iannuzzi, M; Schiffmann, F; VandeVondele, J. 
 WIREs Comput Mol Sci., 4 (1), 15-25 (2014). 
 CP2K: atomistic simulations of condensed matter systems.
 https://doi.org/10.1002/wcms.1159

 Marek, A; Blum, V; Johanni, R; Havu, V; Lang, B; Auckenthaler, T;
 Heinecke, A; Bungartz, H; Lederer, H. 
 Journal of Physics: Condensed Matter, 26 (21), (2014). 
 The ELPA library: scalable parallel eigenvalue solutions for
 electronic structure
 theory and computational science.
 https://doi.org/10.1088/0953-8984/26/21/213201

 Krack, M. 
 THEORETICAL CHEMISTRY ACCOUNTS, 114 (1-3), 145-152 (2005). 
 Pseudopotentials for H to Kr optimized for gradient-corrected
 exchange-correlation functionals.
 https://doi.org/10.1007/s00214-005-0655-y

 VandeVondele, J; Krack, M; Mohamed, F; Parrinello, M; Chassaing, T;
 Hutter, J. COMPUTER PHYSICS COMMUNICATIONS, 167 (2), 103-128 (2005). 
 QUICKSTEP: Fast and accurate density functional calculations using a
 mixed Gaussian and plane waves approach.
 https://doi.org/10.1016/j.cpc.2004.12.014

 Frigo, M; Johnson, SG. 
 PROCEEDINGS OF THE IEEE, 93 (2), 216-231 (2005). 
 The design and implementation of FFTW3.
 https://doi.org/10.1109/JPROC.2004.840301

 VandeVondele, J; Hutter, J. 
 JOURNAL OF CHEMICAL PHYSICS, 118 (10), 4365-4369 (2003). 
 An efficient orbital transformation method for electronic structure
 calculations.
 https://doi.org/10.1063/1.1543154

 Hartwigsen, C; Goedecker, S; Hutter, J. 
 PHYSICAL REVIEW B, 58 (7), 3641-3662 (1998). 
 Relativistic separable dual-space Gaussian pseudopotentials from H to Rn.
 https://doi.org/10.1103/PhysRevB.58.3641

 Lippert, G; Hutter, J; Parrinello, M. 
 MOLECULAR PHYSICS, 92 (3), 477-487 (1997). 
 A hybrid Gaussian and plane wave density functional scheme.
 https://doi.org/10.1080/002689797170220

 Goedecker, S; Teter, M; Hutter, J. 
 PHYSICAL REVIEW B, 54 (3), 1703-1710 (1996). 
 Separable dual-space Gaussian pseudopotentials.
 https://doi.org/10.1103/PhysRevB.54.1703

 BECKE, AD. PHYSICAL REVIEW A, 38 (6), 3098-3100 (1988). 
 DENSITY-FUNCTIONAL EXCHANGE-ENERGY APPROXIMATION WITH CORRECT
 ASYMPTOTIC-BEHAVIOR.
 https://doi.org/10.1103/PhysRevA.38.3098

 LEE, CT; YANG, WT; PARR, RG. 
 PHYSICAL REVIEW B, 37 (2), 785-789 (1988). 
 DEVELOPMENT OF THE COLLE-SALVETTI CORRELATION-ENERGY FORMULA INTO A
 FUNCTIONAL OF THE ELECTRON-DENSITY.
 https://doi.org/10.1103/PhysRevB.37.785


 -------------------------------------------------------------------------------
 -                                                                             -
 -                                T I M I N G                                  -
 -                                                                             -
 -------------------------------------------------------------------------------
 SUBROUTINE                       CALLS  ASD         SELF TIME        TOTAL TIME
                                MAXIMUM       AVERAGE  MAXIMUM  AVERAGE  MAXIMUM
 CP2K                                 1  1.0    0.008    0.008   18.184   18.184
 qs_forces                            1  2.0    0.000    0.000   18.123   18.123
 qs_energies                          1  3.0    0.000    0.000   17.600   17.600
 scf_env_do_scf                       1  4.0    0.000    0.000   17.536   17.536
 scf_env_do_scf_inner_loop           29  5.0    0.002    0.002   16.982   16.982
 rebuild_ks_matrix                   30  6.9    0.000    0.000   16.819   16.819
 qs_ks_build_kohn_sham_matrix        30  7.9    0.003    0.003   16.819   16.819
 qs_ks_update_qs_env                 30  6.0    0.000    0.000   16.297   16.297
 xc_vxc_pw_create                    90  9.9    0.376    0.376   13.236   13.236
 low_spin_roks                       30  8.9    0.035    0.035   11.624   11.624
 pw_transfer                       2971 11.9    0.149    0.149    9.698    9.698
 fft_wrap_pw1pw2                   2911 12.9    0.019    0.019    9.526    9.526
 fft_wrap_pw1pw2_170               1831 14.2    0.528    0.528    9.214    9.214
 xc_rho_set_and_dset_create          90 10.9    0.815    0.815    8.184    8.184
 xc_pw_derive                      1080 11.9    0.006    0.006    6.777    6.777
 fft3d_s                           2912 14.9    5.163    5.163    5.176    5.176
 xc_pw_divergence                   180 10.9    0.003    0.003    4.434    4.434
 qs_vxc_create                       30  8.9    0.000    0.000    4.376    4.376
 xc_functional_eval                 180 11.9    0.002    0.002    3.721    3.721
 lyp_lsd_eval                        90 12.9    3.013    3.013    3.013    3.013
 calculate_rho_elec                 180  8.9    0.044    0.044    2.569    2.569
 density_rs2pw                      180  9.9    0.004    0.004    2.208    2.208
 pw_scatter_s                      1470 15.1    2.091    2.091    2.091    2.091
 pw_gather_s                       1441 14.8    1.690    1.690    1.690    1.690
 integrate_v_rspace                 180  9.9    0.004    0.004    1.432    1.432
 potential_pw2rs                    180 10.9    0.007    0.007    1.206    1.206
 pw_derive                         1080 12.9    0.934    0.934    0.934    0.934
 qs_rho_update_rho_low               30  6.0    0.000    0.000    0.884    0.884
 xb88_lsd_eval                       90 12.9    0.707    0.707    0.707    0.707
 init_scf_loop                        1  5.0    0.000    0.000    0.554    0.554
 qs_ks_update_qs_env_forces           1  3.0    0.000    0.000    0.522    0.522
 sum_up_and_integrate                30  8.9    0.034    0.034    0.513    0.513
 pw_copy                           1711 12.1    0.508    0.508    0.508    0.508
 pw_axpy                           2041 11.2    0.457    0.457    0.457    0.457
 dbcsr_multiply_generic            1374 10.8    0.026    0.026    0.414    0.414
 qs_scf_new_mos                      29  6.0    0.000    0.000    0.387    0.387
 qs_scf_loop_do_ot                   29  7.0    0.000    0.000    0.387    0.387
 ot_scf_mini                         29  8.0    0.000    0.000    0.372    0.372
 -------------------------------------------------------------------------------

 The number of warnings for this run is : 0
 
 -------------------------------------------------------------------------------
  **** **** ******  **  PROGRAM ENDED AT                 2022-12-12 18:08:17.810
 ***** ** ***  *** **   PROGRAM RAN ON                           xissand-MS-7A34
 **    ****   ******    PROGRAM RAN BY                                         j
 ***** **    ** ** **   PROGRAM PROCESS ID                                 99228
  **** **  *******  **  PROGRAM STOPPED IN     /home/j/Study/QMComp/HW/3_cp2k/T1
