 DBCSR| CPU Multiplication driver                                           XSMM
 DBCSR| Multrec recursion limit                                              512
 DBCSR| Multiplication stack size                                           1000
 DBCSR| Maximum elements for images                                    UNLIMITED
 DBCSR| Multiplicative factor virtual images                                   1
 DBCSR| Use multiplication densification                                       T
 DBCSR| Multiplication size stacks                                             3
 DBCSR| Use memory pool for CPU allocation                                     F
 DBCSR| Number of 3D layers                                               SINGLE
 DBCSR| Use MPI memory allocation                                              F
 DBCSR| Use RMA algorithm                                                      F
 DBCSR| Use Communication thread                                               T
 DBCSR| Communication thread load                                             87
 DBCSR| MPI: My node id                                                        0
 DBCSR| MPI: Number of nodes                                                   1
 DBCSR| OMP: Current number of threads                                         1
 DBCSR| OMP: Max number of threads                                             1
 DBCSR| Split modifier for TAS multiplication algorithm                  1.0E+00


  **** **** ******  **  PROGRAM STARTED AT               2022-12-12 18:13:58.876
 ***** ** ***  *** **   PROGRAM STARTED ON                       xissand-MS-7A34
 **    ****   ******    PROGRAM STARTED BY                                     j
 ***** **    ** ** **   PROGRAM PROCESS ID                                100777
  **** **  *******  **  PROGRAM STARTED IN     /home/j/Study/QMComp/HW/3_cp2k/T1

 CP2K| version string:                 CP2K version 2022.1 (Development Version)
 CP2K| source code revision number:                                  git:a213519
 CP2K| cp2kflags: omp fftw3 libxc elpa parallel mpi3 scalapack cosma xsmm spglib
 CP2K|             sirius libvori libbqb libvdwxc
 CP2K| is freely available from                            https://www.cp2k.org/
 CP2K| Program compiled at                       Tue Nov  8 04:05:17 PM MSK 2022
 CP2K| Program compiled on                                       xissand-MS-7A34
 CP2K| Program compiled for                                                local
 CP2K| Data directory path                          /home/j/Study/cp2k/cp2k/data
 CP2K| Input file name                                                  cp2k.inp

 GLOBAL| Force Environment number                                              1
 GLOBAL| Basis set file name                                           BASIS_SET
 GLOBAL| Potential file name                                      GTH_POTENTIALS
 GLOBAL| MM Potential file name                                     MM_POTENTIAL
 GLOBAL| Coordinate file name                                      __STD_INPUT__
 GLOBAL| Method name                                                        CP2K
 GLOBAL| Project name                                                 H2_08_1600
 GLOBAL| Run type                                                   ENERGY_FORCE
 GLOBAL| FFT library                                                       FFTW3
 GLOBAL| Diagonalization library                                            ELPA
 GLOBAL| DGEMM library                                                      BLAS
 GLOBAL| Minimum number of eigenvectors for ELPA usage                        16
 GLOBAL| Orthonormality check for eigenvectors                          DISABLED
 GLOBAL| Matrix multiplication library                                     COSMA
 GLOBAL| All-to-all communication in single precision                          F
 GLOBAL| FFTs using library dependent lengths                                  F
 GLOBAL| Grid backend                                                       AUTO
 GLOBAL| Global print level                                                  LOW
 GLOBAL| MPI I/O enabled                                                       T
 GLOBAL| Total number of message passing processes                             1
 GLOBAL| Number of threads for this process                                    1
 GLOBAL| This output is from process                                           0
 GLOBAL| Stack size for threads created by OpenMP (OMP_STACKSIZE)        default
 GLOBAL| CPU model name                    AMD Ryzen 5 1500X Quad-Core Processor
 GLOBAL| CPUID                                                              1002
 GLOBAL| Compiled for CPUID                                                    0

 *** HINT in environment.F:884 :: The compiler target flags (generic) used ***
 *** to build this binary cannot exploit all extensions of this CPU model  ***
 *** (x86_avx2). Consider compiler target flags as part of FCFLAGS and     ***
 *** CFLAGS (ARCH file).                                                   ***


 MEMORY| system memory details [Kb]
 MEMORY|                        rank 0           min           max       average
 MEMORY| MemTotal             16331996      16331996      16331996      16331996
 MEMORY| MemFree               5913592       5913592       5913592       5913592
 MEMORY| Buffers               1155164       1155164       1155164       1155164
 MEMORY| Cached                4267700       4267700       4267700       4267700
 MEMORY| Slab                   804136        804136        804136        804136
 MEMORY| SReclaimable           630272        630272        630272        630272
 MEMORY| MemLikelyFree        11966728      11966728      11966728      11966728


 GENERATE|  Preliminary Number of Bonds generated:                             0
 GENERATE|  Achieved consistency in connectivity generation.

 *******************************************************************************
 *******************************************************************************
 **                                                                           **
 **     #####                         ##              ##                      **
 **    ##   ##            ##          ##              ##                      **
 **   ##     ##                       ##            ######                    **
 **   ##     ##  ##   ##  ##   #####  ##  ##   ####   ##    #####    #####    **
 **   ##     ##  ##   ##  ##  ##      ## ##   ##      ##   ##   ##  ##   ##   **
 **   ##  ## ##  ##   ##  ##  ##      ####     ###    ##   ######   ######    **
 **    ##  ###   ##   ##  ##  ##      ## ##      ##   ##   ##       ##        **
 **     #######   #####   ##   #####  ##  ##  ####    ##    #####   ##        **
 **           ##                                                    ##        **
 **                                                                           **
 **                                                ... make the atoms dance   **
 **                                                                           **
 **            Copyright (C) by CP2K developers group (2000-2022)             **
 **                      J. Chem. Phys. 152, 194103 (2020)                    **
 **                                                                           **
 *******************************************************************************
 
  **************************************
  restricted calculation cutting corners
  experimental feature, check code      
  **************************************


 TOTAL NUMBERS AND MAXIMUM NUMBERS

  Total number of            - Atomic kinds:                                   1
                             - Atoms:                                          2
                             - Shell sets:                                     4
                             - Shells:                                         6
                             - Primitive Cartesian functions:                 10
                             - Cartesian basis functions:                     10
                             - Spherical basis functions:                     10

  Maximum angular momentum of- Orbital basis functions:                        1
                             - Local part of the GTH pseudopotential:          2


 SCF PARAMETERS         Density guess:                                    ATOMIC
                        --------------------------------------------------------
                        max_scf:                                             400
                        max_scf_history:                                       0
                        max_diis:                                              4
                        --------------------------------------------------------
                        eps_scf:                                        1.00E-06
                        eps_scf_history:                                0.00E+00
                        eps_diis:                                       1.00E-01
                        eps_eigval:                                     1.00E-05
                        --------------------------------------------------------
                        level_shift [a.u.]:                             0.000000
                        --------------------------------------------------------
                        No outer SCF

 Spin 1

 Number of electrons:                                                          2
 Number of occupied orbitals:                                                  2
 Number of molecular orbitals:                                                 2

 Spin 2

 Number of electrons:                                                          0
 Number of occupied orbitals:                                                  0
 Number of molecular orbitals:                                                 0

 Number of orbital functions:                                                 10
 Number of independent orbital functions:                                     10

 Extrapolation method: initial_guess


 SCF WAVEFUNCTION OPTIMIZATION

  ----------------------------------- OT ---------------------------------------
  Allowing for rotations 
  Minimizer      : DIIS                : direct inversion
                                         in the iterative subspace
                                         using   7 DIIS vectors
                                         safer DIIS on
  Preconditioner : FULL_SINGLE         : diagonalization based
  Precond_solver : DEFAULT
  stepsize       :    0.15000000                  energy_gap     :    0.20000000
  eps_taylor     :   0.10000E-15                  max_taylor     :             4
  ----------------------------------- OT ---------------------------------------

  Step     Update method      Time    Convergence         Total energy    Change
  ------------------------------------------------------------------------------
     1 OT DIIS     0.15E+00    0.6     0.04652832        -0.8473865011 -8.47E-01
     2 OT DIIS     0.15E+00    0.6     0.04715124        -0.8538675976 -6.48E-03
     3 OT SD       0.15E+00    0.5     0.04766310        -0.8551645146 -1.30E-03
     4 OT SD       0.15E+00    0.5     0.05050971        -0.8621588355 -6.99E-03
     5 OT SD       0.15E+00    0.5     0.05407862        -0.8700734762 -7.91E-03
     6 OT SD       0.15E+00    0.5     0.05716645        -0.8791051395 -9.03E-03
     7 OT SD       0.15E+00    0.5     0.05943318        -0.8891164371 -1.00E-02
     8 OT DIIS     0.15E+00    0.5     0.06070563        -0.8998419690 -1.07E-02
     9 OT SD       0.15E+00    0.5     0.07119771        -0.9381685787 -3.83E-02
    10 OT SD       0.15E+00    0.5     0.05613956        -0.9516748728 -1.35E-02
    11 OT SD       0.15E+00    0.5     0.04598213        -0.9602297629 -8.55E-03
    12 OT SD       0.15E+00    0.5     0.03867005        -0.9660603275 -5.83E-03
    13 OT SD       0.15E+00    0.5     0.03196431        -0.9701567054 -4.10E-03
    14 OT DIIS     0.15E+00    0.5     0.02616576        -0.9729359945 -2.78E-03
    15 OT DIIS     0.15E+00    0.5     0.01539520        -0.9775984524 -4.66E-03
    16 OT DIIS     0.15E+00    0.5     0.00639250        -0.9790221689 -1.42E-03
    17 OT DIIS     0.15E+00    0.5     0.00391152        -0.9791756619 -1.53E-04
    18 OT DIIS     0.15E+00    0.6     0.00277959        -0.9792125841 -3.69E-05
    19 OT DIIS     0.15E+00    0.5     0.00275244        -0.9792115197  1.06E-06
    20 OT DIIS     0.15E+00    0.5     0.00242228        -0.9792173654 -5.85E-06
    21 OT DIIS     0.15E+00    0.5     0.00039130        -0.9792384908 -2.11E-05
    22 OT DIIS     0.15E+00    0.5     0.00007212        -0.9792392154 -7.25E-07
    23 OT DIIS     0.15E+00    0.5     0.00004185        -0.9792392340 -1.86E-08
    24 OT DIIS     0.15E+00    0.5     0.00000435        -0.9792392421 -8.07E-09
    25 OT DIIS     0.15E+00    0.5     0.00000219        -0.9792392422 -7.10E-11
    26 OT DIIS     0.15E+00    0.5     0.00000093        -0.9792392422 -1.91E-11

  *** SCF run converged in    26 steps ***


  Electronic density on regular grids:         -1.9999999995        0.0000000005
  Core density on regular grids:                1.9999999999       -0.0000000001
  Total charge density on r-space grids:        0.0000000004
  Total charge density g-space grids:           0.0000000004

  Overlap energy of the core charge distribution:               0.00000000000000
  Self energy of the core charge distribution:                 -2.82094791773878
  Core Hamiltonian energy:                                      0.97419230939894
  Hartree energy:                                               1.51455537803716
  Exchange-correlation energy:                                 -0.64703901189204

  Total energy:                                                -0.97923924219472

  Integrated absolute spin density  :                               1.9999999995
  Ideal and single determinant S**2 :                    2.000000       2.000000

 ENERGY| Total FORCE_EVAL ( QS ) energy [a.u.]:               -0.979239242197560

 -------------------------------------------------------------------------------
 -                                                                             -
 -                                DBCSR STATISTICS                             -
 -                                                                             -
 -------------------------------------------------------------------------------
 COUNTER                                    TOTAL       BLAS       SMM       ACC
 flops     2 x     2 x     2                 8432      24.9%     75.1%      0.0%
 flops     2 x     2 x    10                10400       0.0%    100.0%      0.0%
 flops    10 x     2 x    10                10800       0.0%    100.0%      0.0%
 flops    10 x     2 x     2                12400       0.0%    100.0%      0.0%
 flops     5 x     5 x     2                40800       0.0%    100.0%      0.0%
 flops     5 x     2 x     5                66400       0.0%    100.0%      0.0%
 flops inhomo. stacks                           0       0.0%      0.0%      0.0%
 flops total                       149.232000E+03       1.4%     98.6%      0.0%
 flops max/rank                    149.232000E+03       1.4%     98.6%      0.0%
 matmuls inhomo. stacks                         0       0.0%      0.0%      0.0%
 matmuls total                               1911       6.9%     93.1%      0.0%
 number of processed stacks                  1141      11.5%     88.5%      0.0%
 average stack size                                     1.0       1.8       0.0
 marketing flops                   162.912000E+03
 -------------------------------------------------------------------------------
 # multiplications                           1195
 max memory usage/rank             273.510400E+06
 # max total images/rank                        1
 # max 3D layers                                1
 # MPI messages exchanged                       0
 -------------------------------------------------------------------------------
 -                                                                             -
 -                      DBCSR MESSAGE PASSING PERFORMANCE                      -
 -                                                                             -
 -------------------------------------------------------------------------------
 ROUTINE             CALLS      AVE VOLUME [Bytes]
 MP_Bcast                7                     12.
 MP_Allreduce         6233                      8.
 MP_Alltoall          5387                     35.
 MP_ISend             4618                     33.
 MP_IRecv             4618                     33.
 -------------------------------------------------------------------------------

 -------------------------------------------------------------------------------
 -                                                                             -
 -                                DBM STATISTICS                               -
 -                                                                             -
 -------------------------------------------------------------------------------
    M  x    N  x    K                                          COUNT     PERCENT
 -------------------------------------------------------------------------------

 -------------------------------------------------------------------------------
 -                                                                             -
 -                                GRID STATISTICS                              -
 -                                                                             -
 -------------------------------------------------------------------------------
 LP    KERNEL             BACKEND                              COUNT     PERCENT
 0     collocate ortho    REF                                  28026      35.02%
 0     integrate ortho    REF                                  26988      33.72%
 1     integrate ortho    REF                                  11958      14.94%
 1     collocate ortho    REF                                  11340      14.17%
 2     integrate ortho    REF                                   1044       1.30%
 2     collocate ortho    REF                                    648       0.81%
 3     integrate ortho    REF                                     24       0.03%
 0     collocate general  REF                                      2       0.00%
 1     integrate general  REF                                      2       0.00%
 -------------------------------------------------------------------------------

 MEMORY| Estimated peak process memory [MiB]                                 261

 -------------------------------------------------------------------------------
 -                                                                             -
 -                         MESSAGE PASSING PERFORMANCE                         -
 -                                                                             -
 -------------------------------------------------------------------------------

 ROUTINE             CALLS      AVE VOLUME [Bytes]
 MP_Group                4
 MP_Bcast              116                   1973.
 MP_Allreduce          845                      8.
 MP_Sync                 6
 -------------------------------------------------------------------------------


 -------------------------------------------------------------------------------
 -                                                                             -
 -                           R E F E R E N C E S                               -
 -                                                                             -
 -------------------------------------------------------------------------------
 
 CP2K version 2022.1 (Development Version), the CP2K developers group (2022).
 CP2K is freely available from https://www.cp2k.org/ .

 Kuehne,Thomas D.; Iannuzzi,Marcella; Del Ben,Mauro;
 Rybkin,Vladimir V.; Seewald,Patrick; Stein,Frederick; Laino,Teodoro;
 Khaliullin,Rustam Z.; Schuett,Ole; Schiffmann,Florian; Golze,Dorothea;
 Wilhelm,Jan; Chulkov,Sergey; Bani-Hashemian,Mohammad Hossein;
 Weber,Valery; Borstnik,Urban; Taillefumier,Mathieu;
 Jakobovits,Alice Shoshana; Lazzaro,Alfio; Pabst,Hans; Mueller,Tiziano;
 Schade,Robert; Guidon,Manuel; Andermatt,Samuel; Holmberg,Nico;
 Schenter,Gregory K.; Hehn,Anna; Bussy,Augustin; Belleflamme,Fabian;
 Tabacchi,Gloria; Gloess,Andreas; Lass,Michael; Bethune,Iain;
 Mundy,Christopher J.; Plessl,Christian; Watkins,Matt;
 VandeVondele,Joost; Krack,Matthias; Hutter,Juerg. 
 The Journal of Chemical Physics, 152 (19), (2020). 
 CP2K: An electronic structure and molecular dynamics software package -
 Quickstep: Efficient and accurate electronic structure calculations.
 https://doi.org/10.1063/5.0007045

 Schuett, Ole; Messmer, Peter; Hutter, Juerg; VandeVondele, Joost. 
 Electronic Structure Calculations on Graphics Processing Units, John
 Wiley & Sons, Ltd, 173-190 (2016). 
 GPU-Accelerated Sparse Matrix-Matrix Multiplication for
 Linear Scaling Density Functional Theory.
 https://doi.org/10.1002/9781118670712.ch8

 Heinecke, A; Henry, G; Hutchinson, M; Pabst, H. 
 Proceedings of Intl. Supercomputing Conference, 981-991 (2016). 
 LIBXSMM: Accelerating Small Matrix Multiplications
 by Runtime Code Generation.
 https://doi.org/10.1109/SC.2016.83

 Borstnik, U; VandeVondele, J; Weber, V; Hutter, J. 
 PARALLEL COMPUTING, 40 (5-6), 47-58 (2014). 
 Sparse matrix multiplication: The distributed block-compressed sparse
 row library.
 https://doi.org/10.1016/j.parco.2014.03.012

 Hutter, J; Iannuzzi, M; Schiffmann, F; VandeVondele, J. 
 WIREs Comput Mol Sci., 4 (1), 15-25 (2014). 
 CP2K: atomistic simulations of condensed matter systems.
 https://doi.org/10.1002/wcms.1159

 Marek, A; Blum, V; Johanni, R; Havu, V; Lang, B; Auckenthaler, T;
 Heinecke, A; Bungartz, H; Lederer, H. 
 Journal of Physics: Condensed Matter, 26 (21), (2014). 
 The ELPA library: scalable parallel eigenvalue solutions for
 electronic structure
 theory and computational science.
 https://doi.org/10.1088/0953-8984/26/21/213201

 Krack, M. 
 THEORETICAL CHEMISTRY ACCOUNTS, 114 (1-3), 145-152 (2005). 
 Pseudopotentials for H to Kr optimized for gradient-corrected
 exchange-correlation functionals.
 https://doi.org/10.1007/s00214-005-0655-y

 VandeVondele, J; Krack, M; Mohamed, F; Parrinello, M; Chassaing, T;
 Hutter, J. COMPUTER PHYSICS COMMUNICATIONS, 167 (2), 103-128 (2005). 
 QUICKSTEP: Fast and accurate density functional calculations using a
 mixed Gaussian and plane waves approach.
 https://doi.org/10.1016/j.cpc.2004.12.014

 Frigo, M; Johnson, SG. 
 PROCEEDINGS OF THE IEEE, 93 (2), 216-231 (2005). 
 The design and implementation of FFTW3.
 https://doi.org/10.1109/JPROC.2004.840301

 VandeVondele, J; Hutter, J. 
 JOURNAL OF CHEMICAL PHYSICS, 118 (10), 4365-4369 (2003). 
 An efficient orbital transformation method for electronic structure
 calculations.
 https://doi.org/10.1063/1.1543154

 Hartwigsen, C; Goedecker, S; Hutter, J. 
 PHYSICAL REVIEW B, 58 (7), 3641-3662 (1998). 
 Relativistic separable dual-space Gaussian pseudopotentials from H to Rn.
 https://doi.org/10.1103/PhysRevB.58.3641

 Lippert, G; Hutter, J; Parrinello, M. 
 MOLECULAR PHYSICS, 92 (3), 477-487 (1997). 
 A hybrid Gaussian and plane wave density functional scheme.
 https://doi.org/10.1080/002689797170220

 Goedecker, S; Teter, M; Hutter, J. 
 PHYSICAL REVIEW B, 54 (3), 1703-1710 (1996). 
 Separable dual-space Gaussian pseudopotentials.
 https://doi.org/10.1103/PhysRevB.54.1703

 BECKE, AD. PHYSICAL REVIEW A, 38 (6), 3098-3100 (1988). 
 DENSITY-FUNCTIONAL EXCHANGE-ENERGY APPROXIMATION WITH CORRECT
 ASYMPTOTIC-BEHAVIOR.
 https://doi.org/10.1103/PhysRevA.38.3098

 LEE, CT; YANG, WT; PARR, RG. 
 PHYSICAL REVIEW B, 37 (2), 785-789 (1988). 
 DEVELOPMENT OF THE COLLE-SALVETTI CORRELATION-ENERGY FORMULA INTO A
 FUNCTIONAL OF THE ELECTRON-DENSITY.
 https://doi.org/10.1103/PhysRevB.37.785


 -------------------------------------------------------------------------------
 -                                                                             -
 -                                T I M I N G                                  -
 -                                                                             -
 -------------------------------------------------------------------------------
 SUBROUTINE                       CALLS  ASD         SELF TIME        TOTAL TIME
                                MAXIMUM       AVERAGE  MAXIMUM  AVERAGE  MAXIMUM
 CP2K                                 1  1.0    0.008    0.008   14.785   14.785
 qs_forces                            1  2.0    0.000    0.000   14.725   14.725
 qs_energies                          1  3.0    0.000    0.000   14.211   14.211
 scf_env_do_scf                       1  4.0    0.000    0.000   14.147   14.147
 rebuild_ks_matrix                   27  6.9    0.000    0.000   13.650   13.650
 qs_ks_build_kohn_sham_matrix        27  7.9    0.003    0.003   13.650   13.650
 scf_env_do_scf_inner_loop           26  5.0    0.001    0.001   13.596   13.596
 qs_ks_update_qs_env                 27  6.0    0.000    0.000   13.137   13.137
 xc_vxc_pw_create                    81  9.9    0.317    0.317   10.759   10.759
 low_spin_roks                       27  8.9    0.030    0.030    9.460    9.460
 pw_transfer                       2674 11.9    0.116    0.116    7.793    7.793
 fft_wrap_pw1pw2                   2620 12.9    0.015    0.015    7.658    7.658
 fft_wrap_pw1pw2_170               1648 14.2    0.434    0.434    7.392    7.392
 xc_rho_set_and_dset_create          81 10.9    0.674    0.674    6.673    6.673
 xc_pw_derive                       972 11.9    0.005    0.005    5.452    5.452
 fft3d_s                           2621 14.9    4.177    4.177    4.188    4.188
 xc_pw_divergence                   162 10.9    0.002    0.002    3.573    3.573
 qs_vxc_create                       27  8.9    0.000    0.000    3.526    3.526
 xc_functional_eval                 162 11.9    0.001    0.001    3.055    3.055
 lyp_lsd_eval                        81 12.9    2.458    2.458    2.458    2.458
 calculate_rho_elec                 162  8.9    0.038    0.038    2.090    2.090
 density_rs2pw                      162  9.9    0.003    0.003    1.801    1.801
 pw_scatter_s                      1323 15.1    1.709    1.709    1.709    1.709
 pw_gather_s                       1297 14.8    1.294    1.294    1.294    1.294
 integrate_v_rspace                 162  9.9    0.003    0.003    1.156    1.156
 potential_pw2rs                    162 10.9    0.005    0.005    0.979    0.979
 pw_derive                          972 12.9    0.771    0.771    0.771    0.771
 qs_rho_update_rho_low               27  6.0    0.000    0.000    0.738    0.738
 xb88_lsd_eval                       81 12.9    0.595    0.595    0.595    0.595
 init_scf_loop                        1  5.0    0.000    0.000    0.551    0.551
 qs_ks_update_qs_env_forces           1  3.0    0.000    0.000    0.513    0.513
 pw_copy                           1540 12.1    0.435    0.435    0.435    0.435
 sum_up_and_integrate                27  8.9    0.028    0.028    0.414    0.414
 pw_axpy                           1837 11.2    0.381    0.381    0.381    0.381
 dbcsr_multiply_generic            1195 10.8    0.021    0.021    0.323    0.323
 qs_scf_new_mos                      26  6.0    0.000    0.000    0.305    0.305
 qs_scf_loop_do_ot                   26  7.0    0.000    0.000    0.304    0.304
 -------------------------------------------------------------------------------

 The number of warnings for this run is : 0
 
 -------------------------------------------------------------------------------
  **** **** ******  **  PROGRAM ENDED AT                 2022-12-12 18:14:14.226
 ***** ** ***  *** **   PROGRAM RAN ON                           xissand-MS-7A34
 **    ****   ******    PROGRAM RAN BY                                         j
 ***** **    ** ** **   PROGRAM PROCESS ID                                100777
  **** **  *******  **  PROGRAM STOPPED IN     /home/j/Study/QMComp/HW/3_cp2k/T1
