 DBCSR| CPU Multiplication driver                                           XSMM
 DBCSR| Multrec recursion limit                                              512
 DBCSR| Multiplication stack size                                           1000
 DBCSR| Maximum elements for images                                    UNLIMITED
 DBCSR| Multiplicative factor virtual images                                   1
 DBCSR| Use multiplication densification                                       T
 DBCSR| Multiplication size stacks                                             3
 DBCSR| Use memory pool for CPU allocation                                     F
 DBCSR| Number of 3D layers                                               SINGLE
 DBCSR| Use MPI memory allocation                                              F
 DBCSR| Use RMA algorithm                                                      F
 DBCSR| Use Communication thread                                               T
 DBCSR| Communication thread load                                             87
 DBCSR| MPI: My node id                                                        0
 DBCSR| MPI: Number of nodes                                                   1
 DBCSR| OMP: Current number of threads                                         1
 DBCSR| OMP: Max number of threads                                             1
 DBCSR| Split modifier for TAS multiplication algorithm                  1.0E+00


  **** **** ******  **  PROGRAM STARTED AT               2022-12-12 18:04:57.806
 ***** ** ***  *** **   PROGRAM STARTED ON                       xissand-MS-7A34
 **    ****   ******    PROGRAM STARTED BY                                     j
 ***** **    ** ** **   PROGRAM PROCESS ID                                 98292
  **** **  *******  **  PROGRAM STARTED IN     /home/j/Study/QMComp/HW/3_cp2k/T1

 CP2K| version string:                 CP2K version 2022.1 (Development Version)
 CP2K| source code revision number:                                  git:a213519
 CP2K| cp2kflags: omp fftw3 libxc elpa parallel mpi3 scalapack cosma xsmm spglib
 CP2K|             sirius libvori libbqb libvdwxc
 CP2K| is freely available from                            https://www.cp2k.org/
 CP2K| Program compiled at                       Tue Nov  8 04:05:17 PM MSK 2022
 CP2K| Program compiled on                                       xissand-MS-7A34
 CP2K| Program compiled for                                                local
 CP2K| Data directory path                          /home/j/Study/cp2k/cp2k/data
 CP2K| Input file name                                                  cp2k.inp

 GLOBAL| Force Environment number                                              1
 GLOBAL| Basis set file name                                           BASIS_SET
 GLOBAL| Potential file name                                      GTH_POTENTIALS
 GLOBAL| MM Potential file name                                     MM_POTENTIAL
 GLOBAL| Coordinate file name                                      __STD_INPUT__
 GLOBAL| Method name                                                        CP2K
 GLOBAL| Project name                                                 H2_08_1600
 GLOBAL| Run type                                                   ENERGY_FORCE
 GLOBAL| FFT library                                                       FFTW3
 GLOBAL| Diagonalization library                                            ELPA
 GLOBAL| DGEMM library                                                      BLAS
 GLOBAL| Minimum number of eigenvectors for ELPA usage                        16
 GLOBAL| Orthonormality check for eigenvectors                          DISABLED
 GLOBAL| Matrix multiplication library                                     COSMA
 GLOBAL| All-to-all communication in single precision                          F
 GLOBAL| FFTs using library dependent lengths                                  F
 GLOBAL| Grid backend                                                       AUTO
 GLOBAL| Global print level                                                  LOW
 GLOBAL| MPI I/O enabled                                                       T
 GLOBAL| Total number of message passing processes                             1
 GLOBAL| Number of threads for this process                                    1
 GLOBAL| This output is from process                                           0
 GLOBAL| Stack size for threads created by OpenMP (OMP_STACKSIZE)        default
 GLOBAL| CPU model name                    AMD Ryzen 5 1500X Quad-Core Processor
 GLOBAL| CPUID                                                              1002
 GLOBAL| Compiled for CPUID                                                    0

 *** HINT in environment.F:884 :: The compiler target flags (generic) used ***
 *** to build this binary cannot exploit all extensions of this CPU model  ***
 *** (x86_avx2). Consider compiler target flags as part of FCFLAGS and     ***
 *** CFLAGS (ARCH file).                                                   ***


 MEMORY| system memory details [Kb]
 MEMORY|                        rank 0           min           max       average
 MEMORY| MemTotal             16331996      16331996      16331996      16331996
 MEMORY| MemFree               6090812       6090812       6090812       6090812
 MEMORY| Buffers               1151240       1151240       1151240       1151240
 MEMORY| Cached                4225244       4225244       4225244       4225244
 MEMORY| Slab                   800016        800016        800016        800016
 MEMORY| SReclaimable           627304        627304        627304        627304
 MEMORY| MemLikelyFree        12094600      12094600      12094600      12094600


 GENERATE|  Preliminary Number of Bonds generated:                             0
 GENERATE|  Achieved consistency in connectivity generation.

 *******************************************************************************
 *******************************************************************************
 **                                                                           **
 **     #####                         ##              ##                      **
 **    ##   ##            ##          ##              ##                      **
 **   ##     ##                       ##            ######                    **
 **   ##     ##  ##   ##  ##   #####  ##  ##   ####   ##    #####    #####    **
 **   ##     ##  ##   ##  ##  ##      ## ##   ##      ##   ##   ##  ##   ##   **
 **   ##  ## ##  ##   ##  ##  ##      ####     ###    ##   ######   ######    **
 **    ##  ###   ##   ##  ##  ##      ## ##      ##   ##   ##       ##        **
 **     #######   #####   ##   #####  ##  ##  ####    ##    #####   ##        **
 **           ##                                                    ##        **
 **                                                                           **
 **                                                ... make the atoms dance   **
 **                                                                           **
 **            Copyright (C) by CP2K developers group (2000-2022)             **
 **                      J. Chem. Phys. 152, 194103 (2020)                    **
 **                                                                           **
 *******************************************************************************
 
  **************************************
  restricted calculation cutting corners
  experimental feature, check code      
  **************************************


 TOTAL NUMBERS AND MAXIMUM NUMBERS

  Total number of            - Atomic kinds:                                   1
                             - Atoms:                                          2
                             - Shell sets:                                     4
                             - Shells:                                         6
                             - Primitive Cartesian functions:                 10
                             - Cartesian basis functions:                     10
                             - Spherical basis functions:                     10

  Maximum angular momentum of- Orbital basis functions:                        1
                             - Local part of the GTH pseudopotential:          2


 SCF PARAMETERS         Density guess:                                    ATOMIC
                        --------------------------------------------------------
                        max_scf:                                             400
                        max_scf_history:                                       0
                        max_diis:                                              4
                        --------------------------------------------------------
                        eps_scf:                                        1.00E-06
                        eps_scf_history:                                0.00E+00
                        eps_diis:                                       1.00E-01
                        eps_eigval:                                     1.00E-05
                        --------------------------------------------------------
                        level_shift [a.u.]:                             0.000000
                        --------------------------------------------------------
                        No outer SCF

 Spin 1

 Number of electrons:                                                          2
 Number of occupied orbitals:                                                  2
 Number of molecular orbitals:                                                 2

 Spin 2

 Number of electrons:                                                          0
 Number of occupied orbitals:                                                  0
 Number of molecular orbitals:                                                 0

 Number of orbital functions:                                                 10
 Number of independent orbital functions:                                     10

 Extrapolation method: initial_guess


 SCF WAVEFUNCTION OPTIMIZATION

  ----------------------------------- OT ---------------------------------------
  Allowing for rotations 
  Minimizer      : DIIS                : direct inversion
                                         in the iterative subspace
                                         using   7 DIIS vectors
                                         safer DIIS on
  Preconditioner : FULL_SINGLE         : diagonalization based
  Precond_solver : DEFAULT
  stepsize       :    0.15000000                  energy_gap     :    0.20000000
  eps_taylor     :   0.10000E-15                  max_taylor     :             4
  ----------------------------------- OT ---------------------------------------

  Step     Update method      Time    Convergence         Total energy    Change
  ------------------------------------------------------------------------------
     1 OT DIIS     0.15E+00    0.6     0.17283516        -0.5641900003 -5.64E-01
     2 OT DIIS     0.15E+00    0.6     0.11883968        -0.6393267146 -7.51E-02
     3 OT DIIS     0.15E+00    0.6     0.04088673        -0.7012676810 -6.19E-02
     4 OT DIIS     0.15E+00    0.6     0.02777029        -0.7070667212 -5.80E-03
     5 OT DIIS     0.15E+00    0.6     0.02745048        -0.7071778470 -1.11E-04
     6 OT DIIS     0.15E+00    0.5     0.04168493        -0.7116608869 -4.48E-03
     7 OT SD       0.15E+00    0.6     0.05575089        -0.7113533041  3.08E-04
     8 OT SD       0.15E+00    0.6     0.03632839        -0.7187176273 -7.36E-03
     9 OT SD       0.15E+00    0.6     0.03137454        -0.7223544790 -3.64E-03
    10 OT SD       0.15E+00    0.6     0.02931867        -0.7251820968 -2.83E-03
    11 OT SD       0.15E+00    0.5     0.02881299        -0.7277285623 -2.55E-03
    12 OT SD       0.15E+00    0.5     0.02878170        -0.7302148930 -2.49E-03
    13 OT DIIS     0.15E+00    0.5     0.02886389        -0.7327022314 -2.49E-03
    14 OT DIIS     0.15E+00    0.6     0.08523659        -0.7447783164 -1.21E-02
    15 OT DIIS     0.15E+00    0.6     0.11301820        -0.6563666156  8.84E-02
    16 OT DIIS     0.15E+00    0.5     0.07184331        -0.6848657239 -2.85E-02
    17 OT SD       0.15E+00    0.6     0.22937016        -0.4672417186  2.18E-01
    18 OT DIIS     0.15E+00    0.6     0.16644292        -0.6039975237 -1.37E-01
    19 OT DIIS     0.15E+00    0.6     0.08937671        -0.7209006065 -1.17E-01
    20 OT DIIS     0.15E+00    0.6     0.07935680        -0.7436401802 -2.27E-02
    21 OT DIIS     0.15E+00    0.6     0.03096380        -0.7591951999 -1.56E-02
    22 OT DIIS     0.15E+00    0.5     0.09289404        -0.7397629408  1.94E-02
    23 OT DIIS     0.15E+00    0.5     0.02837345        -0.7582902758 -1.85E-02
    24 OT SD       0.15E+00    0.5     0.01961807        -0.7655951527 -7.30E-03
    25 OT SD       0.15E+00    0.6     0.01064342        -0.7664479031 -8.53E-04
    26 OT DIIS     0.15E+00    0.6     0.00805151        -0.7667406749 -2.93E-04
    27 OT DIIS     0.15E+00    0.6     0.00344182        -0.7674886483 -7.48E-04
    28 OT DIIS     0.15E+00    0.6     0.00698334        -0.7674302371  5.84E-05
    29 OT DIIS     0.15E+00    0.6     0.00226011        -0.7676204342 -1.90E-04
    30 OT DIIS     0.15E+00    0.6     0.00033096        -0.7676439288 -2.35E-05
    31 OT DIIS     0.15E+00    0.7     0.00020043        -0.7676439971 -6.83E-08
    32 OT DIIS     0.15E+00    0.6     0.00007943        -0.7676443738 -3.77E-07
    33 OT DIIS     0.15E+00    0.6     0.00001924        -0.7676444442 -7.04E-08
    34 OT SD       0.15E+00    0.6     0.00001648        -0.7676444491 -4.93E-09
    35 OT DIIS     0.15E+00    0.6     0.00000899        -0.7676444461  3.06E-09
    36 OT DIIS     0.15E+00    0.6     0.00001179        -0.7676444410  5.03E-09
    37 OT DIIS     0.15E+00    0.6     0.00000714        -0.7676444310  1.00E-08
    38 OT DIIS     0.15E+00    0.6     0.00000306        -0.7676444324 -1.34E-09
    39 OT DIIS     0.15E+00    0.6     0.00000112        -0.7676444311  1.26E-09
    40 OT DIIS     0.15E+00    0.6     0.00000092        -0.7676444311  6.46E-13

  *** SCF run converged in    40 steps ***


  Electronic density on regular grids:         -1.9999999995        0.0000000005
  Core density on regular grids:                1.9999999999       -0.0000000001
  Total charge density on r-space grids:        0.0000000004
  Total charge density g-space grids:           0.0000000004

  Overlap energy of the core charge distribution:               0.00000005982394
  Self energy of the core charge distribution:                 -2.82094791773878
  Core Hamiltonian energy:                                      1.19201088838685
  Hartree energy:                                               1.54116965578822
  Exchange-correlation energy:                                 -0.67987711737477

  Total energy:                                                -0.76764443111453

  Integrated absolute spin density  :                               1.9999999995
  Ideal and single determinant S**2 :                    2.000000       2.000000

 ENERGY| Total FORCE_EVAL ( QS ) energy [a.u.]:               -0.767644431116254

 -------------------------------------------------------------------------------
 -                                                                             -
 -                                DBCSR STATISTICS                             -
 -                                                                             -
 -------------------------------------------------------------------------------
 COUNTER                                    TOTAL       BLAS       SMM       ACC
 flops     2 x     2 x     2                10800      29.8%     70.2%      0.0%
 flops     2 x     2 x    10                16000       0.0%    100.0%      0.0%
 flops    10 x     2 x    10                16400       0.0%    100.0%      0.0%
 flops    10 x     2 x     2                19120       0.0%    100.0%      0.0%
 flops     5 x     5 x     2                61800       0.0%    100.0%      0.0%
 flops     5 x     2 x     5               100000       0.0%    100.0%      0.0%
 flops inhomo. stacks                           0       0.0%      0.0%      0.0%
 flops total                       224.120000E+03       1.4%     98.6%      0.0%
 flops max/rank                    224.120000E+03       1.4%     98.6%      0.0%
 matmuls inhomo. stacks                         0       0.0%      0.0%      0.0%
 matmuls total                               2773       7.2%     92.8%      0.0%
 number of processed stacks                  1611      12.5%     87.5%      0.0%
 average stack size                                     1.0       1.8       0.0
 marketing flops                   244.800000E+03
 -------------------------------------------------------------------------------
 # multiplications                           1693
 max memory usage/rank             272.797696E+06
 # max total images/rank                        1
 # max 3D layers                                1
 # MPI messages exchanged                       0
 -------------------------------------------------------------------------------
 -                                                                             -
 -                      DBCSR MESSAGE PASSING PERFORMANCE                      -
 -                                                                             -
 -------------------------------------------------------------------------------
 ROUTINE             CALLS      AVE VOLUME [Bytes]
 MP_Bcast                7                     12.
 MP_Allreduce         8877                      8.
 MP_Alltoall          8298                     34.
 MP_ISend             6526                     34.
 MP_IRecv             6526                     34.
 -------------------------------------------------------------------------------

 -------------------------------------------------------------------------------
 -                                                                             -
 -                                DBM STATISTICS                               -
 -                                                                             -
 -------------------------------------------------------------------------------
    M  x    N  x    K                                          COUNT     PERCENT
 -------------------------------------------------------------------------------

 -------------------------------------------------------------------------------
 -                                                                             -
 -                                GRID STATISTICS                              -
 -                                                                             -
 -------------------------------------------------------------------------------
 LP    KERNEL             BACKEND                              COUNT     PERCENT
 0     collocate ortho    REF                                  43050      36.31%
 0     integrate ortho    REF                                  42000      35.42%
 1     integrate ortho    REF                                  15930      13.43%
 1     collocate ortho    REF                                  15252      12.86%
 2     integrate ortho    REF                                   1332       1.12%
 2     collocate ortho    REF                                    984       0.83%
 3     integrate ortho    REF                                     24       0.02%
 0     collocate general  REF                                      2       0.00%
 1     integrate general  REF                                      2       0.00%
 -------------------------------------------------------------------------------

 MEMORY| Estimated peak process memory [MiB]                                 261

 -------------------------------------------------------------------------------
 -                                                                             -
 -                         MESSAGE PASSING PERFORMANCE                         -
 -                                                                             -
 -------------------------------------------------------------------------------

 ROUTINE             CALLS      AVE VOLUME [Bytes]
 MP_Group                4
 MP_Bcast              240                   1451.
 MP_Allreduce         1319                      8.
 MP_Sync                46
 -------------------------------------------------------------------------------


 -------------------------------------------------------------------------------
 -                                                                             -
 -                           R E F E R E N C E S                               -
 -                                                                             -
 -------------------------------------------------------------------------------
 
 CP2K version 2022.1 (Development Version), the CP2K developers group (2022).
 CP2K is freely available from https://www.cp2k.org/ .

 Kuehne,Thomas D.; Iannuzzi,Marcella; Del Ben,Mauro;
 Rybkin,Vladimir V.; Seewald,Patrick; Stein,Frederick; Laino,Teodoro;
 Khaliullin,Rustam Z.; Schuett,Ole; Schiffmann,Florian; Golze,Dorothea;
 Wilhelm,Jan; Chulkov,Sergey; Bani-Hashemian,Mohammad Hossein;
 Weber,Valery; Borstnik,Urban; Taillefumier,Mathieu;
 Jakobovits,Alice Shoshana; Lazzaro,Alfio; Pabst,Hans; Mueller,Tiziano;
 Schade,Robert; Guidon,Manuel; Andermatt,Samuel; Holmberg,Nico;
 Schenter,Gregory K.; Hehn,Anna; Bussy,Augustin; Belleflamme,Fabian;
 Tabacchi,Gloria; Gloess,Andreas; Lass,Michael; Bethune,Iain;
 Mundy,Christopher J.; Plessl,Christian; Watkins,Matt;
 VandeVondele,Joost; Krack,Matthias; Hutter,Juerg. 
 The Journal of Chemical Physics, 152 (19), (2020). 
 CP2K: An electronic structure and molecular dynamics software package -
 Quickstep: Efficient and accurate electronic structure calculations.
 https://doi.org/10.1063/5.0007045

 Schuett, Ole; Messmer, Peter; Hutter, Juerg; VandeVondele, Joost. 
 Electronic Structure Calculations on Graphics Processing Units, John
 Wiley & Sons, Ltd, 173-190 (2016). 
 GPU-Accelerated Sparse Matrix-Matrix Multiplication for
 Linear Scaling Density Functional Theory.
 https://doi.org/10.1002/9781118670712.ch8

 Heinecke, A; Henry, G; Hutchinson, M; Pabst, H. 
 Proceedings of Intl. Supercomputing Conference, 981-991 (2016). 
 LIBXSMM: Accelerating Small Matrix Multiplications
 by Runtime Code Generation.
 https://doi.org/10.1109/SC.2016.83

 Borstnik, U; VandeVondele, J; Weber, V; Hutter, J. 
 PARALLEL COMPUTING, 40 (5-6), 47-58 (2014). 
 Sparse matrix multiplication: The distributed block-compressed sparse
 row library.
 https://doi.org/10.1016/j.parco.2014.03.012

 Hutter, J; Iannuzzi, M; Schiffmann, F; VandeVondele, J. 
 WIREs Comput Mol Sci., 4 (1), 15-25 (2014). 
 CP2K: atomistic simulations of condensed matter systems.
 https://doi.org/10.1002/wcms.1159

 Marek, A; Blum, V; Johanni, R; Havu, V; Lang, B; Auckenthaler, T;
 Heinecke, A; Bungartz, H; Lederer, H. 
 Journal of Physics: Condensed Matter, 26 (21), (2014). 
 The ELPA library: scalable parallel eigenvalue solutions for
 electronic structure
 theory and computational science.
 https://doi.org/10.1088/0953-8984/26/21/213201

 Krack, M. 
 THEORETICAL CHEMISTRY ACCOUNTS, 114 (1-3), 145-152 (2005). 
 Pseudopotentials for H to Kr optimized for gradient-corrected
 exchange-correlation functionals.
 https://doi.org/10.1007/s00214-005-0655-y

 VandeVondele, J; Krack, M; Mohamed, F; Parrinello, M; Chassaing, T;
 Hutter, J. COMPUTER PHYSICS COMMUNICATIONS, 167 (2), 103-128 (2005). 
 QUICKSTEP: Fast and accurate density functional calculations using a
 mixed Gaussian and plane waves approach.
 https://doi.org/10.1016/j.cpc.2004.12.014

 Frigo, M; Johnson, SG. 
 PROCEEDINGS OF THE IEEE, 93 (2), 216-231 (2005). 
 The design and implementation of FFTW3.
 https://doi.org/10.1109/JPROC.2004.840301

 VandeVondele, J; Hutter, J. 
 JOURNAL OF CHEMICAL PHYSICS, 118 (10), 4365-4369 (2003). 
 An efficient orbital transformation method for electronic structure
 calculations.
 https://doi.org/10.1063/1.1543154

 Hartwigsen, C; Goedecker, S; Hutter, J. 
 PHYSICAL REVIEW B, 58 (7), 3641-3662 (1998). 
 Relativistic separable dual-space Gaussian pseudopotentials from H to Rn.
 https://doi.org/10.1103/PhysRevB.58.3641

 Lippert, G; Hutter, J; Parrinello, M. 
 MOLECULAR PHYSICS, 92 (3), 477-487 (1997). 
 A hybrid Gaussian and plane wave density functional scheme.
 https://doi.org/10.1080/002689797170220

 Goedecker, S; Teter, M; Hutter, J. 
 PHYSICAL REVIEW B, 54 (3), 1703-1710 (1996). 
 Separable dual-space Gaussian pseudopotentials.
 https://doi.org/10.1103/PhysRevB.54.1703

 BECKE, AD. PHYSICAL REVIEW A, 38 (6), 3098-3100 (1988). 
 DENSITY-FUNCTIONAL EXCHANGE-ENERGY APPROXIMATION WITH CORRECT
 ASYMPTOTIC-BEHAVIOR.
 https://doi.org/10.1103/PhysRevA.38.3098

 LEE, CT; YANG, WT; PARR, RG. 
 PHYSICAL REVIEW B, 37 (2), 785-789 (1988). 
 DEVELOPMENT OF THE COLLE-SALVETTI CORRELATION-ENERGY FORMULA INTO A
 FUNCTIONAL OF THE ELECTRON-DENSITY.
 https://doi.org/10.1103/PhysRevB.37.785


 -------------------------------------------------------------------------------
 -                                                                             -
 -                                T I M I N G                                  -
 -                                                                             -
 -------------------------------------------------------------------------------
 SUBROUTINE                       CALLS  ASD         SELF TIME        TOTAL TIME
                                MAXIMUM       AVERAGE  MAXIMUM  AVERAGE  MAXIMUM
 CP2K                                 1  1.0    0.008    0.008   23.622   23.622
 qs_forces                            1  2.0    0.000    0.000   23.561   23.561
 qs_energies                          1  3.0    0.000    0.000   23.049   23.049
 scf_env_do_scf                       1  4.0    0.000    0.000   22.983   22.983
 scf_env_do_scf_inner_loop           40  5.0    0.003    0.003   22.427   22.427
 rebuild_ks_matrix                   41  6.9    0.000    0.000   21.905   21.905
 qs_ks_build_kohn_sham_matrix        41  7.9    0.005    0.005   21.905   21.905
 qs_ks_update_qs_env                 41  6.0    0.000    0.000   21.395   21.395
 xc_vxc_pw_create                   123  9.9    0.501    0.501   17.253   17.253
 low_spin_roks                       41  8.9    0.048    0.048   15.183   15.183
 pw_transfer                       4060 11.9    0.195    0.195   12.565   12.565
 fft_wrap_pw1pw2                   3978 13.0    0.024    0.024   12.341   12.341
 fft_wrap_pw1pw2_170               2502 14.3    0.685    0.685   11.921   11.921
 xc_rho_set_and_dset_create         123 10.9    1.060    1.060   10.655   10.655
 xc_pw_derive                      1476 11.9    0.008    0.008    8.784    8.784
 fft3d_s                           3979 15.0    6.703    6.703    6.717    6.717
 xc_pw_divergence                   246 10.9    0.003    0.003    5.781    5.781
 qs_vxc_create                       41  8.9    0.000    0.000    5.665    5.665
 xc_functional_eval                 246 11.9    0.002    0.002    4.876    4.876
 lyp_lsd_eval                       123 12.9    3.938    3.938    3.938    3.938
 calculate_rho_elec                 246  9.0    0.060    0.060    3.353    3.353
 density_rs2pw                      246 10.0    0.006    0.006    2.887    2.887
 pw_scatter_s                      2009 15.1    2.734    2.734    2.734    2.734
 pw_gather_s                       1969 14.8    2.151    2.151    2.151    2.151
 integrate_v_rspace                 246  9.9    0.005    0.005    1.854    1.854
 potential_pw2rs                    246 10.9    0.009    0.009    1.564    1.564
 pw_derive                         1476 12.9    1.225    1.225    1.225    1.225
 qs_rho_update_rho_low               41  6.0    0.000    0.000    1.162    1.162
 xb88_lsd_eval                      123 12.9    0.936    0.936    0.936    0.936
 pw_copy                           2338 12.2    0.679    0.679    0.679    0.679
 sum_up_and_integrate                41  8.9    0.044    0.044    0.661    0.661
 pw_axpy                           2789 11.2    0.602    0.602    0.602    0.602
 init_scf_loop                        1  5.0    0.000    0.000    0.556    0.556
 qs_ks_update_qs_env_forces           1  3.0    0.000    0.000    0.511    0.511
 dbcsr_multiply_generic            1693 10.7    0.031    0.031    0.493    0.493
 -------------------------------------------------------------------------------

 The number of warnings for this run is : 0
 
 -------------------------------------------------------------------------------
  **** **** ******  **  PROGRAM ENDED AT                 2022-12-12 18:05:21.980
 ***** ** ***  *** **   PROGRAM RAN ON                           xissand-MS-7A34
 **    ****   ******    PROGRAM RAN BY                                         j
 ***** **    ** ** **   PROGRAM PROCESS ID                                 98292
  **** **  *******  **  PROGRAM STOPPED IN     /home/j/Study/QMComp/HW/3_cp2k/T1
