 DBCSR| CPU Multiplication driver                                           XSMM
 DBCSR| Multrec recursion limit                                              512
 DBCSR| Multiplication stack size                                           1000
 DBCSR| Maximum elements for images                                    UNLIMITED
 DBCSR| Multiplicative factor virtual images                                   1
 DBCSR| Use multiplication densification                                       T
 DBCSR| Multiplication size stacks                                             3
 DBCSR| Use memory pool for CPU allocation                                     F
 DBCSR| Number of 3D layers                                               SINGLE
 DBCSR| Use MPI memory allocation                                              F
 DBCSR| Use RMA algorithm                                                      F
 DBCSR| Use Communication thread                                               T
 DBCSR| Communication thread load                                             87
 DBCSR| MPI: My node id                                                        0
 DBCSR| MPI: Number of nodes                                                   1
 DBCSR| OMP: Current number of threads                                         1
 DBCSR| OMP: Max number of threads                                             1
 DBCSR| Split modifier for TAS multiplication algorithm                  1.0E+00


  **** **** ******  **  PROGRAM STARTED AT               2022-12-12 18:06:58.817
 ***** ** ***  *** **   PROGRAM STARTED ON                       xissand-MS-7A34
 **    ****   ******    PROGRAM STARTED BY                                     j
 ***** **    ** ** **   PROGRAM PROCESS ID                                 98963
  **** **  *******  **  PROGRAM STARTED IN     /home/j/Study/QMComp/HW/3_cp2k/T1

 CP2K| version string:                 CP2K version 2022.1 (Development Version)
 CP2K| source code revision number:                                  git:a213519
 CP2K| cp2kflags: omp fftw3 libxc elpa parallel mpi3 scalapack cosma xsmm spglib
 CP2K|             sirius libvori libbqb libvdwxc
 CP2K| is freely available from                            https://www.cp2k.org/
 CP2K| Program compiled at                       Tue Nov  8 04:05:17 PM MSK 2022
 CP2K| Program compiled on                                       xissand-MS-7A34
 CP2K| Program compiled for                                                local
 CP2K| Data directory path                          /home/j/Study/cp2k/cp2k/data
 CP2K| Input file name                                                  cp2k.inp

 GLOBAL| Force Environment number                                              1
 GLOBAL| Basis set file name                                           BASIS_SET
 GLOBAL| Potential file name                                      GTH_POTENTIALS
 GLOBAL| MM Potential file name                                     MM_POTENTIAL
 GLOBAL| Coordinate file name                                      __STD_INPUT__
 GLOBAL| Method name                                                        CP2K
 GLOBAL| Project name                                                 H2_08_1600
 GLOBAL| Run type                                                   ENERGY_FORCE
 GLOBAL| FFT library                                                       FFTW3
 GLOBAL| Diagonalization library                                            ELPA
 GLOBAL| DGEMM library                                                      BLAS
 GLOBAL| Minimum number of eigenvectors for ELPA usage                        16
 GLOBAL| Orthonormality check for eigenvectors                          DISABLED
 GLOBAL| Matrix multiplication library                                     COSMA
 GLOBAL| All-to-all communication in single precision                          F
 GLOBAL| FFTs using library dependent lengths                                  F
 GLOBAL| Grid backend                                                       AUTO
 GLOBAL| Global print level                                                  LOW
 GLOBAL| MPI I/O enabled                                                       T
 GLOBAL| Total number of message passing processes                             1
 GLOBAL| Number of threads for this process                                    1
 GLOBAL| This output is from process                                           0
 GLOBAL| Stack size for threads created by OpenMP (OMP_STACKSIZE)        default
 GLOBAL| CPU model name                    AMD Ryzen 5 1500X Quad-Core Processor
 GLOBAL| CPUID                                                              1002
 GLOBAL| Compiled for CPUID                                                    0

 *** HINT in environment.F:884 :: The compiler target flags (generic) used ***
 *** to build this binary cannot exploit all extensions of this CPU model  ***
 *** (x86_avx2). Consider compiler target flags as part of FCFLAGS and     ***
 *** CFLAGS (ARCH file).                                                   ***


 MEMORY| system memory details [Kb]
 MEMORY|                        rank 0           min           max       average
 MEMORY| MemTotal             16331996      16331996      16331996      16331996
 MEMORY| MemFree               5928840       5928840       5928840       5928840
 MEMORY| Buffers               1152300       1152300       1152300       1152300
 MEMORY| Cached                4249668       4249668       4249668       4249668
 MEMORY| Slab                   801164        801164        801164        801164
 MEMORY| SReclaimable           628080        628080        628080        628080
 MEMORY| MemLikelyFree        11958888      11958888      11958888      11958888


 GENERATE|  Preliminary Number of Bonds generated:                             0
 GENERATE|  Achieved consistency in connectivity generation.

 *******************************************************************************
 *******************************************************************************
 **                                                                           **
 **     #####                         ##              ##                      **
 **    ##   ##            ##          ##              ##                      **
 **   ##     ##                       ##            ######                    **
 **   ##     ##  ##   ##  ##   #####  ##  ##   ####   ##    #####    #####    **
 **   ##     ##  ##   ##  ##  ##      ## ##   ##      ##   ##   ##  ##   ##   **
 **   ##  ## ##  ##   ##  ##  ##      ####     ###    ##   ######   ######    **
 **    ##  ###   ##   ##  ##  ##      ## ##      ##   ##   ##       ##        **
 **     #######   #####   ##   #####  ##  ##  ####    ##    #####   ##        **
 **           ##                                                    ##        **
 **                                                                           **
 **                                                ... make the atoms dance   **
 **                                                                           **
 **            Copyright (C) by CP2K developers group (2000-2022)             **
 **                      J. Chem. Phys. 152, 194103 (2020)                    **
 **                                                                           **
 *******************************************************************************
 
  **************************************
  restricted calculation cutting corners
  experimental feature, check code      
  **************************************


 TOTAL NUMBERS AND MAXIMUM NUMBERS

  Total number of            - Atomic kinds:                                   1
                             - Atoms:                                          2
                             - Shell sets:                                     4
                             - Shells:                                         6
                             - Primitive Cartesian functions:                 10
                             - Cartesian basis functions:                     10
                             - Spherical basis functions:                     10

  Maximum angular momentum of- Orbital basis functions:                        1
                             - Local part of the GTH pseudopotential:          2


 SCF PARAMETERS         Density guess:                                    ATOMIC
                        --------------------------------------------------------
                        max_scf:                                             400
                        max_scf_history:                                       0
                        max_diis:                                              4
                        --------------------------------------------------------
                        eps_scf:                                        1.00E-06
                        eps_scf_history:                                0.00E+00
                        eps_diis:                                       1.00E-01
                        eps_eigval:                                     1.00E-05
                        --------------------------------------------------------
                        level_shift [a.u.]:                             0.000000
                        --------------------------------------------------------
                        No outer SCF

 Spin 1

 Number of electrons:                                                          2
 Number of occupied orbitals:                                                  2
 Number of molecular orbitals:                                                 2

 Spin 2

 Number of electrons:                                                          0
 Number of occupied orbitals:                                                  0
 Number of molecular orbitals:                                                 0

 Number of orbital functions:                                                 10
 Number of independent orbital functions:                                     10

 Extrapolation method: initial_guess


 SCF WAVEFUNCTION OPTIMIZATION

  ----------------------------------- OT ---------------------------------------
  Allowing for rotations 
  Minimizer      : DIIS                : direct inversion
                                         in the iterative subspace
                                         using   7 DIIS vectors
                                         safer DIIS on
  Preconditioner : FULL_SINGLE         : diagonalization based
  Precond_solver : DEFAULT
  stepsize       :    0.15000000                  energy_gap     :    0.20000000
  eps_taylor     :   0.10000E-15                  max_taylor     :             4
  ----------------------------------- OT ---------------------------------------

  Step     Update method      Time    Convergence         Total energy    Change
  ------------------------------------------------------------------------------
     1 OT DIIS     0.15E+00    0.6     0.09357513        -0.7336069744 -7.34E-01
     2 OT DIIS     0.15E+00    0.6     0.07233091        -0.7568081656 -2.32E-02
     3 OT DIIS     0.15E+00    0.6     0.03544343        -0.7888221228 -3.20E-02
     4 OT SD       0.15E+00    0.6     0.04958618        -0.7953573346 -6.54E-03
     5 OT SD       0.15E+00    0.6     0.04662387        -0.8024117214 -7.05E-03
     6 OT SD       0.15E+00    0.6     0.04664530        -0.8089125558 -6.50E-03
     7 OT SD       0.15E+00    0.6     0.04691562        -0.8154462893 -6.53E-03
     8 OT SD       0.15E+00    0.6     0.04723313        -0.8220703855 -6.62E-03
     9 OT DIIS     0.15E+00    0.6     0.04731014        -0.8287658600 -6.70E-03
    10 OT DIIS     0.15E+00    0.6     0.05502701        -0.8544813412 -2.57E-02
    11 OT DIIS     0.15E+00    0.6     0.05116901        -0.8625470058 -8.07E-03
    12 OT DIIS     0.15E+00    0.6     0.19207430        -0.5721660423  2.90E-01
    13 OT DIIS     0.15E+00    0.6     0.08476516        -0.8073742346 -2.35E-01
    14 OT DIIS     0.15E+00    0.5     0.24121879        -0.6511761772  1.56E-01
    15 OT DIIS     0.15E+00    0.5     0.09474792        -0.8534487986 -2.02E-01
    16 OT SD       0.15E+00    0.5     0.06263501        -0.7886739511  6.48E-02
    17 OT SD       0.15E+00    0.6     0.05448117        -0.7995471253 -1.09E-02
    18 OT SD       0.15E+00    0.6     0.05103145        -0.8080987266 -8.55E-03
    19 OT SD       0.15E+00    0.6     0.04929465        -0.8157478229 -7.65E-03
    20 OT DIIS     0.15E+00    0.6     0.04844972        -0.8229594645 -7.21E-03
    21 OT SD       0.15E+00    0.6     0.13485062        -0.7882841434  3.47E-02
    22 OT SD       0.15E+00    0.6     0.09154178        -0.8340116815 -4.57E-02
    23 OT SD       0.15E+00    0.6     0.06206988        -0.8549599344 -2.09E-02
    24 OT SD       0.15E+00    0.6     0.04485883        -0.8648328566 -9.87E-03
    25 OT DIIS     0.15E+00    0.6     0.03527268        -0.8701767775 -5.34E-03
    26 OT DIIS     0.15E+00    0.6     0.02730032        -0.8792034040 -9.03E-03
    27 OT DIIS     0.15E+00    0.6     0.08228791        -0.8520036318  2.72E-02
    28 OT DIIS     0.15E+00    0.5     0.00765873        -0.8845047854 -3.25E-02
    29 OT DIIS     0.15E+00    0.6     0.01183673        -0.8843939264  1.11E-04
    30 OT DIIS     0.15E+00    0.6     0.00728430        -0.8845719359 -1.78E-04
    31 OT DIIS     0.15E+00    0.6     0.00134274        -0.8848026768 -2.31E-04
    32 OT DIIS     0.15E+00    0.6     0.00096338        -0.8848059906 -3.31E-06
    33 OT DIIS     0.15E+00    0.5     0.00013937        -0.8848088544 -2.86E-06
    34 OT DIIS     0.15E+00    0.6     0.00005805        -0.8848089173 -6.29E-08
    35 OT DIIS     0.15E+00    0.7     0.00001225        -0.8848089305 -1.31E-08
    36 OT DIIS     0.15E+00    0.6     0.00000300        -0.8848089310 -5.09E-10
    37 OT DIIS     0.15E+00    0.6     0.00000060        -0.8848089310 -3.79E-11

  *** SCF run converged in    37 steps ***


  Electronic density on regular grids:         -1.9999999997        0.0000000003
  Core density on regular grids:                1.9999999999       -0.0000000001
  Total charge density on r-space grids:        0.0000000002
  Total charge density g-space grids:           0.0000000002

  Overlap energy of the core charge distribution:               0.00000000000010
  Self energy of the core charge distribution:                 -2.82094791773878
  Core Hamiltonian energy:                                      1.11511251403690
  Hartree energy:                                               1.49747137281528
  Exchange-correlation energy:                                 -0.67644490013551

  Total energy:                                                -0.88480893102203

  Integrated absolute spin density  :                               1.9999999997
  Ideal and single determinant S**2 :                    2.000000       2.000000

 ENERGY| Total FORCE_EVAL ( QS ) energy [a.u.]:               -0.884808931021459

 -------------------------------------------------------------------------------
 -                                                                             -
 -                                DBCSR STATISTICS                             -
 -                                                                             -
 -------------------------------------------------------------------------------
 COUNTER                                    TOTAL       BLAS       SMM       ACC
 flops     2 x     2 x     2                11792      25.2%     74.8%      0.0%
 flops     2 x     2 x    10                14800       0.0%    100.0%      0.0%
 flops    10 x     2 x    10                15200       0.0%    100.0%      0.0%
 flops    10 x     2 x     2                17680       0.0%    100.0%      0.0%
 flops     5 x     5 x     2                57300       0.0%    100.0%      0.0%
 flops     5 x     2 x     5                92800       0.0%    100.0%      0.0%
 flops inhomo. stacks                           0       0.0%      0.0%      0.0%
 flops total                       209.572000E+03       1.4%     98.6%      0.0%
 flops max/rank                    209.572000E+03       1.4%     98.6%      0.0%
 matmuls inhomo. stacks                         0       0.0%      0.0%      0.0%
 matmuls total                               2682       6.9%     93.1%      0.0%
 number of processed stacks                  1604      11.6%     88.4%      0.0%
 average stack size                                     1.0       1.8       0.0
 marketing flops                   228.752000E+03
 -------------------------------------------------------------------------------
 # multiplications                           1680
 max memory usage/rank             273.821696E+06
 # max total images/rank                        1
 # max 3D layers                                1
 # MPI messages exchanged                       0
 -------------------------------------------------------------------------------
 -                                                                             -
 -                      DBCSR MESSAGE PASSING PERFORMANCE                      -
 -                                                                             -
 -------------------------------------------------------------------------------
 ROUTINE             CALLS      AVE VOLUME [Bytes]
 MP_Bcast                7                     12.
 MP_Allreduce         8779                      8.
 MP_Alltoall          7719                     34.
 MP_ISend             6492                     33.
 MP_IRecv             6492                     33.
 -------------------------------------------------------------------------------

 -------------------------------------------------------------------------------
 -                                                                             -
 -                                DBM STATISTICS                               -
 -                                                                             -
 -------------------------------------------------------------------------------
    M  x    N  x    K                                          COUNT     PERCENT
 -------------------------------------------------------------------------------

 -------------------------------------------------------------------------------
 -                                                                             -
 -                                GRID STATISTICS                              -
 -                                                                             -
 -------------------------------------------------------------------------------
 LP    KERNEL             BACKEND                              COUNT     PERCENT
 0     collocate ortho    REF                                  40584      36.47%
 0     integrate ortho    REF                                  39516      35.51%
 1     integrate ortho    REF                                  14832      13.33%
 1     collocate ortho    REF                                  14136      12.70%
 2     integrate ortho    REF                                   1260       1.13%
 2     collocate ortho    REF                                    912       0.82%
 3     integrate ortho    REF                                     24       0.02%
 0     collocate general  REF                                      2       0.00%
 1     integrate general  REF                                      2       0.00%
 -------------------------------------------------------------------------------

 MEMORY| Estimated peak process memory [MiB]                                 262

 -------------------------------------------------------------------------------
 -                                                                             -
 -                         MESSAGE PASSING PERFORMANCE                         -
 -                                                                             -
 -------------------------------------------------------------------------------

 ROUTINE             CALLS      AVE VOLUME [Bytes]
 MP_Group                4
 MP_Bcast              220                   1467.
 MP_Allreduce         1211                      9.
 MP_Sync                26
 -------------------------------------------------------------------------------


 -------------------------------------------------------------------------------
 -                                                                             -
 -                           R E F E R E N C E S                               -
 -                                                                             -
 -------------------------------------------------------------------------------
 
 CP2K version 2022.1 (Development Version), the CP2K developers group (2022).
 CP2K is freely available from https://www.cp2k.org/ .

 Kuehne,Thomas D.; Iannuzzi,Marcella; Del Ben,Mauro;
 Rybkin,Vladimir V.; Seewald,Patrick; Stein,Frederick; Laino,Teodoro;
 Khaliullin,Rustam Z.; Schuett,Ole; Schiffmann,Florian; Golze,Dorothea;
 Wilhelm,Jan; Chulkov,Sergey; Bani-Hashemian,Mohammad Hossein;
 Weber,Valery; Borstnik,Urban; Taillefumier,Mathieu;
 Jakobovits,Alice Shoshana; Lazzaro,Alfio; Pabst,Hans; Mueller,Tiziano;
 Schade,Robert; Guidon,Manuel; Andermatt,Samuel; Holmberg,Nico;
 Schenter,Gregory K.; Hehn,Anna; Bussy,Augustin; Belleflamme,Fabian;
 Tabacchi,Gloria; Gloess,Andreas; Lass,Michael; Bethune,Iain;
 Mundy,Christopher J.; Plessl,Christian; Watkins,Matt;
 VandeVondele,Joost; Krack,Matthias; Hutter,Juerg. 
 The Journal of Chemical Physics, 152 (19), (2020). 
 CP2K: An electronic structure and molecular dynamics software package -
 Quickstep: Efficient and accurate electronic structure calculations.
 https://doi.org/10.1063/5.0007045

 Schuett, Ole; Messmer, Peter; Hutter, Juerg; VandeVondele, Joost. 
 Electronic Structure Calculations on Graphics Processing Units, John
 Wiley & Sons, Ltd, 173-190 (2016). 
 GPU-Accelerated Sparse Matrix-Matrix Multiplication for
 Linear Scaling Density Functional Theory.
 https://doi.org/10.1002/9781118670712.ch8

 Heinecke, A; Henry, G; Hutchinson, M; Pabst, H. 
 Proceedings of Intl. Supercomputing Conference, 981-991 (2016). 
 LIBXSMM: Accelerating Small Matrix Multiplications
 by Runtime Code Generation.
 https://doi.org/10.1109/SC.2016.83

 Borstnik, U; VandeVondele, J; Weber, V; Hutter, J. 
 PARALLEL COMPUTING, 40 (5-6), 47-58 (2014). 
 Sparse matrix multiplication: The distributed block-compressed sparse
 row library.
 https://doi.org/10.1016/j.parco.2014.03.012

 Hutter, J; Iannuzzi, M; Schiffmann, F; VandeVondele, J. 
 WIREs Comput Mol Sci., 4 (1), 15-25 (2014). 
 CP2K: atomistic simulations of condensed matter systems.
 https://doi.org/10.1002/wcms.1159

 Marek, A; Blum, V; Johanni, R; Havu, V; Lang, B; Auckenthaler, T;
 Heinecke, A; Bungartz, H; Lederer, H. 
 Journal of Physics: Condensed Matter, 26 (21), (2014). 
 The ELPA library: scalable parallel eigenvalue solutions for
 electronic structure
 theory and computational science.
 https://doi.org/10.1088/0953-8984/26/21/213201

 Krack, M. 
 THEORETICAL CHEMISTRY ACCOUNTS, 114 (1-3), 145-152 (2005). 
 Pseudopotentials for H to Kr optimized for gradient-corrected
 exchange-correlation functionals.
 https://doi.org/10.1007/s00214-005-0655-y

 VandeVondele, J; Krack, M; Mohamed, F; Parrinello, M; Chassaing, T;
 Hutter, J. COMPUTER PHYSICS COMMUNICATIONS, 167 (2), 103-128 (2005). 
 QUICKSTEP: Fast and accurate density functional calculations using a
 mixed Gaussian and plane waves approach.
 https://doi.org/10.1016/j.cpc.2004.12.014

 Frigo, M; Johnson, SG. 
 PROCEEDINGS OF THE IEEE, 93 (2), 216-231 (2005). 
 The design and implementation of FFTW3.
 https://doi.org/10.1109/JPROC.2004.840301

 VandeVondele, J; Hutter, J. 
 JOURNAL OF CHEMICAL PHYSICS, 118 (10), 4365-4369 (2003). 
 An efficient orbital transformation method for electronic structure
 calculations.
 https://doi.org/10.1063/1.1543154

 Hartwigsen, C; Goedecker, S; Hutter, J. 
 PHYSICAL REVIEW B, 58 (7), 3641-3662 (1998). 
 Relativistic separable dual-space Gaussian pseudopotentials from H to Rn.
 https://doi.org/10.1103/PhysRevB.58.3641

 Lippert, G; Hutter, J; Parrinello, M. 
 MOLECULAR PHYSICS, 92 (3), 477-487 (1997). 
 A hybrid Gaussian and plane wave density functional scheme.
 https://doi.org/10.1080/002689797170220

 Goedecker, S; Teter, M; Hutter, J. 
 PHYSICAL REVIEW B, 54 (3), 1703-1710 (1996). 
 Separable dual-space Gaussian pseudopotentials.
 https://doi.org/10.1103/PhysRevB.54.1703

 BECKE, AD. PHYSICAL REVIEW A, 38 (6), 3098-3100 (1988). 
 DENSITY-FUNCTIONAL EXCHANGE-ENERGY APPROXIMATION WITH CORRECT
 ASYMPTOTIC-BEHAVIOR.
 https://doi.org/10.1103/PhysRevA.38.3098

 LEE, CT; YANG, WT; PARR, RG. 
 PHYSICAL REVIEW B, 37 (2), 785-789 (1988). 
 DEVELOPMENT OF THE COLLE-SALVETTI CORRELATION-ENERGY FORMULA INTO A
 FUNCTIONAL OF THE ELECTRON-DENSITY.
 https://doi.org/10.1103/PhysRevB.37.785


 -------------------------------------------------------------------------------
 -                                                                             -
 -                                T I M I N G                                  -
 -                                                                             -
 -------------------------------------------------------------------------------
 SUBROUTINE                       CALLS  ASD         SELF TIME        TOTAL TIME
                                MAXIMUM       AVERAGE  MAXIMUM  AVERAGE  MAXIMUM
 CP2K                                 1  1.0    0.008    0.008   22.110   22.110
 qs_forces                            1  2.0    0.000    0.000   22.050   22.050
 qs_energies                          1  3.0    0.000    0.000   21.541   21.541
 scf_env_do_scf                       1  4.0    0.000    0.000   21.474   21.474
 scf_env_do_scf_inner_loop           37  5.0    0.002    0.002   20.879   20.879
 rebuild_ks_matrix                   38  6.9    0.000    0.000   20.439   20.439
 qs_ks_build_kohn_sham_matrix        38  7.9    0.004    0.004   20.439   20.439
 qs_ks_update_qs_env                 38  6.0    0.000    0.000   19.932   19.932
 xc_vxc_pw_create                   114  9.9    0.462    0.462   16.096   16.096
 low_spin_roks                       38  8.9    0.044    0.044   14.180   14.180
 pw_transfer                       3763 11.9    0.182    0.182   11.810   11.810
 fft_wrap_pw1pw2                   3687 13.0    0.023    0.023   11.599   11.599
 fft_wrap_pw1pw2_170               2319 14.3    0.642    0.642   11.207   11.207
 xc_rho_set_and_dset_create         114 10.9    0.984    0.984    9.885    9.885
 xc_pw_derive                      1368 11.9    0.007    0.007    8.232    8.232
 fft3d_s                           3688 15.0    6.289    6.289    6.302    6.302
 xc_pw_divergence                   228 10.9    0.003    0.003    5.455    5.455
 qs_vxc_create                       38  8.9    0.000    0.000    5.267    5.267
 xc_functional_eval                 228 11.9    0.002    0.002    4.507    4.507
 lyp_lsd_eval                       114 12.9    3.639    3.639    3.639    3.639
 calculate_rho_elec                 228  8.9    0.056    0.056    3.122    3.122
 density_rs2pw                      228  9.9    0.005    0.005    2.686    2.686
 pw_scatter_s                      1862 15.1    2.573    2.573    2.573    2.573
 pw_gather_s                       1825 14.8    2.030    2.030    2.030    2.030
 integrate_v_rspace                 228  9.9    0.005    0.005    1.757    1.757
 potential_pw2rs                    228 10.9    0.008    0.008    1.485    1.485
 pw_derive                         1368 12.9    1.139    1.139    1.139    1.139
 qs_rho_update_rho_low               38  6.0    0.000    0.000    1.108    1.108
 xb88_lsd_eval                      114 12.9    0.866    0.866    0.866    0.866
 pw_copy                           2167 12.1    0.631    0.631    0.631    0.631
 sum_up_and_integrate                38  8.9    0.042    0.042    0.616    0.616
 init_scf_loop                        1  5.0    0.000    0.000    0.594    0.594
 pw_axpy                           2585 11.2    0.563    0.563    0.563    0.563
 qs_ks_update_qs_env_forces           1  3.0    0.000    0.000    0.507    0.507
 dbcsr_multiply_generic            1680 10.8    0.031    0.031    0.494    0.494
 qs_scf_new_mos                      37  6.0    0.000    0.000    0.466    0.466
 qs_scf_loop_do_ot                   37  7.0    0.000    0.000    0.466    0.466
 ot_scf_mini                         37  8.0    0.000    0.000    0.447    0.447
 -------------------------------------------------------------------------------

 The number of warnings for this run is : 0
 
 -------------------------------------------------------------------------------
  **** **** ******  **  PROGRAM ENDED AT                 2022-12-12 18:07:21.569
 ***** ** ***  *** **   PROGRAM RAN ON                           xissand-MS-7A34
 **    ****   ******    PROGRAM RAN BY                                         j
 ***** **    ** ** **   PROGRAM PROCESS ID                                 98963
  **** **  *******  **  PROGRAM STOPPED IN     /home/j/Study/QMComp/HW/3_cp2k/T1
