 DBCSR| CPU Multiplication driver                                           XSMM
 DBCSR| Multrec recursion limit                                              512
 DBCSR| Multiplication stack size                                           1000
 DBCSR| Maximum elements for images                                    UNLIMITED
 DBCSR| Multiplicative factor virtual images                                   1
 DBCSR| Use multiplication densification                                       T
 DBCSR| Multiplication size stacks                                             3
 DBCSR| Use memory pool for CPU allocation                                     F
 DBCSR| Number of 3D layers                                               SINGLE
 DBCSR| Use MPI memory allocation                                              F
 DBCSR| Use RMA algorithm                                                      F
 DBCSR| Use Communication thread                                               T
 DBCSR| Communication thread load                                             87
 DBCSR| MPI: My node id                                                        0
 DBCSR| MPI: Number of nodes                                                   1
 DBCSR| OMP: Current number of threads                                         1
 DBCSR| OMP: Max number of threads                                             1
 DBCSR| Split modifier for TAS multiplication algorithm                  1.0E+00


  **** **** ******  **  PROGRAM STARTED AT               2022-12-12 18:08:34.530
 ***** ** ***  *** **   PROGRAM STARTED ON                       xissand-MS-7A34
 **    ****   ******    PROGRAM STARTED BY                                     j
 ***** **    ** ** **   PROGRAM PROCESS ID                                 99449
  **** **  *******  **  PROGRAM STARTED IN     /home/j/Study/QMComp/HW/3_cp2k/T1

 CP2K| version string:                 CP2K version 2022.1 (Development Version)
 CP2K| source code revision number:                                  git:a213519
 CP2K| cp2kflags: omp fftw3 libxc elpa parallel mpi3 scalapack cosma xsmm spglib
 CP2K|             sirius libvori libbqb libvdwxc
 CP2K| is freely available from                            https://www.cp2k.org/
 CP2K| Program compiled at                       Tue Nov  8 04:05:17 PM MSK 2022
 CP2K| Program compiled on                                       xissand-MS-7A34
 CP2K| Program compiled for                                                local
 CP2K| Data directory path                          /home/j/Study/cp2k/cp2k/data
 CP2K| Input file name                                                  cp2k.inp

 GLOBAL| Force Environment number                                              1
 GLOBAL| Basis set file name                                           BASIS_SET
 GLOBAL| Potential file name                                      GTH_POTENTIALS
 GLOBAL| MM Potential file name                                     MM_POTENTIAL
 GLOBAL| Coordinate file name                                      __STD_INPUT__
 GLOBAL| Method name                                                        CP2K
 GLOBAL| Project name                                                 H2_08_1600
 GLOBAL| Run type                                                   ENERGY_FORCE
 GLOBAL| FFT library                                                       FFTW3
 GLOBAL| Diagonalization library                                            ELPA
 GLOBAL| DGEMM library                                                      BLAS
 GLOBAL| Minimum number of eigenvectors for ELPA usage                        16
 GLOBAL| Orthonormality check for eigenvectors                          DISABLED
 GLOBAL| Matrix multiplication library                                     COSMA
 GLOBAL| All-to-all communication in single precision                          F
 GLOBAL| FFTs using library dependent lengths                                  F
 GLOBAL| Grid backend                                                       AUTO
 GLOBAL| Global print level                                                  LOW
 GLOBAL| MPI I/O enabled                                                       T
 GLOBAL| Total number of message passing processes                             1
 GLOBAL| Number of threads for this process                                    1
 GLOBAL| This output is from process                                           0
 GLOBAL| Stack size for threads created by OpenMP (OMP_STACKSIZE)        default
 GLOBAL| CPU model name                    AMD Ryzen 5 1500X Quad-Core Processor
 GLOBAL| CPUID                                                              1002
 GLOBAL| Compiled for CPUID                                                    0

 *** HINT in environment.F:884 :: The compiler target flags (generic) used ***
 *** to build this binary cannot exploit all extensions of this CPU model  ***
 *** (x86_avx2). Consider compiler target flags as part of FCFLAGS and     ***
 *** CFLAGS (ARCH file).                                                   ***


 MEMORY| system memory details [Kb]
 MEMORY|                        rank 0           min           max       average
 MEMORY| MemTotal             16331996      16331996      16331996      16331996
 MEMORY| MemFree               5911320       5911320       5911320       5911320
 MEMORY| Buffers               1153024       1153024       1153024       1153024
 MEMORY| Cached                4233752       4233752       4233752       4233752
 MEMORY| Slab                   801320        801320        801320        801320
 MEMORY| SReclaimable           628128        628128        628128        628128
 MEMORY| MemLikelyFree        11926224      11926224      11926224      11926224


 GENERATE|  Preliminary Number of Bonds generated:                             0
 GENERATE|  Achieved consistency in connectivity generation.

 *******************************************************************************
 *******************************************************************************
 **                                                                           **
 **     #####                         ##              ##                      **
 **    ##   ##            ##          ##              ##                      **
 **   ##     ##                       ##            ######                    **
 **   ##     ##  ##   ##  ##   #####  ##  ##   ####   ##    #####    #####    **
 **   ##     ##  ##   ##  ##  ##      ## ##   ##      ##   ##   ##  ##   ##   **
 **   ##  ## ##  ##   ##  ##  ##      ####     ###    ##   ######   ######    **
 **    ##  ###   ##   ##  ##  ##      ## ##      ##   ##   ##       ##        **
 **     #######   #####   ##   #####  ##  ##  ####    ##    #####   ##        **
 **           ##                                                    ##        **
 **                                                                           **
 **                                                ... make the atoms dance   **
 **                                                                           **
 **            Copyright (C) by CP2K developers group (2000-2022)             **
 **                      J. Chem. Phys. 152, 194103 (2020)                    **
 **                                                                           **
 *******************************************************************************
 
  **************************************
  restricted calculation cutting corners
  experimental feature, check code      
  **************************************


 TOTAL NUMBERS AND MAXIMUM NUMBERS

  Total number of            - Atomic kinds:                                   1
                             - Atoms:                                          2
                             - Shell sets:                                     4
                             - Shells:                                         6
                             - Primitive Cartesian functions:                 10
                             - Cartesian basis functions:                     10
                             - Spherical basis functions:                     10

  Maximum angular momentum of- Orbital basis functions:                        1
                             - Local part of the GTH pseudopotential:          2


 SCF PARAMETERS         Density guess:                                    ATOMIC
                        --------------------------------------------------------
                        max_scf:                                             400
                        max_scf_history:                                       0
                        max_diis:                                              4
                        --------------------------------------------------------
                        eps_scf:                                        1.00E-06
                        eps_scf_history:                                0.00E+00
                        eps_diis:                                       1.00E-01
                        eps_eigval:                                     1.00E-05
                        --------------------------------------------------------
                        level_shift [a.u.]:                             0.000000
                        --------------------------------------------------------
                        No outer SCF

 Spin 1

 Number of electrons:                                                          2
 Number of occupied orbitals:                                                  2
 Number of molecular orbitals:                                                 2

 Spin 2

 Number of electrons:                                                          0
 Number of occupied orbitals:                                                  0
 Number of molecular orbitals:                                                 0

 Number of orbital functions:                                                 10
 Number of independent orbital functions:                                     10

 Extrapolation method: initial_guess


 SCF WAVEFUNCTION OPTIMIZATION

  ----------------------------------- OT ---------------------------------------
  Allowing for rotations 
  Minimizer      : DIIS                : direct inversion
                                         in the iterative subspace
                                         using   7 DIIS vectors
                                         safer DIIS on
  Preconditioner : FULL_SINGLE         : diagonalization based
  Precond_solver : DEFAULT
  stepsize       :    0.15000000                  energy_gap     :    0.20000000
  eps_taylor     :   0.10000E-15                  max_taylor     :             4
  ----------------------------------- OT ---------------------------------------

  Step     Update method      Time    Convergence         Total energy    Change
  ------------------------------------------------------------------------------
     1 OT DIIS     0.15E+00    0.6     0.05860424        -0.7898644985 -7.90E-01
     2 OT DIIS     0.15E+00    0.5     0.04588134        -0.7990061198 -9.14E-03
     3 OT DIIS     0.15E+00    0.5     0.02765432        -0.8132034471 -1.42E-02
     4 OT SD       0.15E+00    0.5     0.03337139        -0.8175506708 -4.35E-03
     5 OT SD       0.15E+00    0.6     0.03636438        -0.8210364460 -3.49E-03
     6 OT SD       0.15E+00    0.6     0.04033250        -0.8252275870 -4.19E-03
     7 OT SD       0.15E+00    0.6     0.04371425        -0.8303165836 -5.09E-03
     8 OT SD       0.15E+00    0.6     0.04684472        -0.8362595100 -5.94E-03
     9 OT SD       0.15E+00    0.6     0.04957629        -0.8430417509 -6.78E-03
    10 OT SD       0.15E+00    0.5     0.05173602        -0.8505841292 -7.54E-03
    11 OT SD       0.15E+00    0.6     0.05380787        -0.8587861441 -8.20E-03
    12 OT SD       0.15E+00    0.5     0.05436897        -0.8675331549 -8.75E-03
    13 OT SD       0.15E+00    0.6     0.05387038        -0.8763738276 -8.84E-03
    14 OT DIIS     0.15E+00    0.5     0.05257380        -0.8849735291 -8.60E-03
    15 OT DIIS     0.15E+00    0.5     0.04589520        -0.9135487817 -2.86E-02
    16 OT SD       0.15E+00    0.6     0.01952035        -0.9303031186 -1.68E-02
    17 OT DIIS     0.15E+00    0.5     0.01347438        -0.9312592982 -9.56E-04
    18 OT SD       0.15E+00    0.5     0.00602531        -0.9326215449 -1.36E-03
    19 OT DIIS     0.15E+00    0.5     0.00378365        -0.9327101683 -8.86E-05
    20 OT DIIS     0.15E+00    0.6     0.00158023        -0.9327585088 -4.83E-05
    21 OT DIIS     0.15E+00    0.6     0.00101783        -0.9327652530 -6.74E-06
    22 OT DIIS     0.15E+00    0.7     0.00016281        -0.9327699283 -4.68E-06
    23 OT DIIS     0.15E+00    0.6     0.00004776        -0.9327700353 -1.07E-07
    24 OT DIIS     0.15E+00    0.6     0.00000934        -0.9327700451 -9.72E-09
    25 OT DIIS     0.15E+00    0.6     0.00000421        -0.9327700453 -2.82E-10
    26 OT DIIS     0.15E+00    0.6     0.00000190        -0.9327700454 -4.01E-11
    27 OT DIIS     0.15E+00    0.6     0.00000116        -0.9327700454 -6.21E-12
    28 OT DIIS     0.15E+00    0.6     0.00000030        -0.9327700454 -1.39E-11

  *** SCF run converged in    28 steps ***


  Electronic density on regular grids:         -1.9999999996        0.0000000004
  Core density on regular grids:                1.9999999999       -0.0000000001
  Total charge density on r-space grids:        0.0000000003
  Total charge density g-space grids:           0.0000000003

  Overlap energy of the core charge distribution:               0.00000000000000
  Self energy of the core charge distribution:                 -2.82094791773878
  Core Hamiltonian energy:                                      1.06271108381827
  Hartree energy:                                               1.49404200507903
  Exchange-correlation energy:                                 -0.66857521656594

  Total energy:                                                -0.93277004540741

  Integrated absolute spin density  :                               1.9999999996
  Ideal and single determinant S**2 :                    2.000000       2.000000

 ENERGY| Total FORCE_EVAL ( QS ) energy [a.u.]:               -0.932770045407759

 -------------------------------------------------------------------------------
 -                                                                             -
 -                                DBCSR STATISTICS                             -
 -                                                                             -
 -------------------------------------------------------------------------------
 COUNTER                                    TOTAL       BLAS       SMM       ACC
 flops     2 x     2 x     2                10048      22.5%     77.5%      0.0%
 flops     2 x     2 x    10                11200       0.0%    100.0%      0.0%
 flops    10 x     2 x    10                11600       0.0%    100.0%      0.0%
 flops    10 x     2 x     2                13360       0.0%    100.0%      0.0%
 flops     5 x     5 x     2                43800       0.0%    100.0%      0.0%
 flops     5 x     2 x     5                71200       0.0%    100.0%      0.0%
 flops inhomo. stacks                           0       0.0%      0.0%      0.0%
 flops total                       161.208000E+03       1.4%     98.6%      0.0%
 flops max/rank                    161.208000E+03       1.4%     98.6%      0.0%
 matmuls inhomo. stacks                         0       0.0%      0.0%      0.0%
 matmuls total                               2114       6.7%     93.3%      0.0%
 number of processed stacks                  1288      10.9%     89.1%      0.0%
 average stack size                                     1.0       1.7       0.0
 marketing flops                   175.888000E+03
 -------------------------------------------------------------------------------
 # multiplications                           1346
 max memory usage/rank             273.117184E+06
 # max total images/rank                        1
 # max 3D layers                                1
 # MPI messages exchanged                       0
 -------------------------------------------------------------------------------
 -                                                                             -
 -                      DBCSR MESSAGE PASSING PERFORMANCE                      -
 -                                                                             -
 -------------------------------------------------------------------------------
 ROUTINE             CALLS      AVE VOLUME [Bytes]
 MP_Bcast                7                     12.
 MP_Allreduce         7010                      8.
 MP_Alltoall          5941                     34.
 MP_ISend             5210                     33.
 MP_IRecv             5210                     33.
 -------------------------------------------------------------------------------

 -------------------------------------------------------------------------------
 -                                                                             -
 -                                DBM STATISTICS                               -
 -                                                                             -
 -------------------------------------------------------------------------------
    M  x    N  x    K                                          COUNT     PERCENT
 -------------------------------------------------------------------------------

 -------------------------------------------------------------------------------
 -                                                                             -
 -                                GRID STATISTICS                              -
 -                                                                             -
 -------------------------------------------------------------------------------
 LP    KERNEL             BACKEND                              COUNT     PERCENT
 0     collocate ortho    REF                                  32016      35.94%
 0     integrate ortho    REF                                  30912      34.70%
 1     integrate ortho    REF                                  12528      14.06%
 1     collocate ortho    REF                                  11832      13.28%
 2     integrate ortho    REF                                   1080       1.21%
 2     collocate ortho    REF                                    696       0.78%
 3     integrate ortho    REF                                     24       0.03%
 0     collocate general  REF                                      2       0.00%
 1     integrate general  REF                                      2       0.00%
 -------------------------------------------------------------------------------

 MEMORY| Estimated peak process memory [MiB]                                 261

 -------------------------------------------------------------------------------
 -                                                                             -
 -                         MESSAGE PASSING PERFORMANCE                         -
 -                                                                             -
 -------------------------------------------------------------------------------

 ROUTINE             CALLS      AVE VOLUME [Bytes]
 MP_Group                4
 MP_Bcast              158                   1558.
 MP_Allreduce          970                      9.
 MP_Sync                10
 -------------------------------------------------------------------------------


 -------------------------------------------------------------------------------
 -                                                                             -
 -                           R E F E R E N C E S                               -
 -                                                                             -
 -------------------------------------------------------------------------------
 
 CP2K version 2022.1 (Development Version), the CP2K developers group (2022).
 CP2K is freely available from https://www.cp2k.org/ .

 Kuehne,Thomas D.; Iannuzzi,Marcella; Del Ben,Mauro;
 Rybkin,Vladimir V.; Seewald,Patrick; Stein,Frederick; Laino,Teodoro;
 Khaliullin,Rustam Z.; Schuett,Ole; Schiffmann,Florian; Golze,Dorothea;
 Wilhelm,Jan; Chulkov,Sergey; Bani-Hashemian,Mohammad Hossein;
 Weber,Valery; Borstnik,Urban; Taillefumier,Mathieu;
 Jakobovits,Alice Shoshana; Lazzaro,Alfio; Pabst,Hans; Mueller,Tiziano;
 Schade,Robert; Guidon,Manuel; Andermatt,Samuel; Holmberg,Nico;
 Schenter,Gregory K.; Hehn,Anna; Bussy,Augustin; Belleflamme,Fabian;
 Tabacchi,Gloria; Gloess,Andreas; Lass,Michael; Bethune,Iain;
 Mundy,Christopher J.; Plessl,Christian; Watkins,Matt;
 VandeVondele,Joost; Krack,Matthias; Hutter,Juerg. 
 The Journal of Chemical Physics, 152 (19), (2020). 
 CP2K: An electronic structure and molecular dynamics software package -
 Quickstep: Efficient and accurate electronic structure calculations.
 https://doi.org/10.1063/5.0007045

 Schuett, Ole; Messmer, Peter; Hutter, Juerg; VandeVondele, Joost. 
 Electronic Structure Calculations on Graphics Processing Units, John
 Wiley & Sons, Ltd, 173-190 (2016). 
 GPU-Accelerated Sparse Matrix-Matrix Multiplication for
 Linear Scaling Density Functional Theory.
 https://doi.org/10.1002/9781118670712.ch8

 Heinecke, A; Henry, G; Hutchinson, M; Pabst, H. 
 Proceedings of Intl. Supercomputing Conference, 981-991 (2016). 
 LIBXSMM: Accelerating Small Matrix Multiplications
 by Runtime Code Generation.
 https://doi.org/10.1109/SC.2016.83

 Borstnik, U; VandeVondele, J; Weber, V; Hutter, J. 
 PARALLEL COMPUTING, 40 (5-6), 47-58 (2014). 
 Sparse matrix multiplication: The distributed block-compressed sparse
 row library.
 https://doi.org/10.1016/j.parco.2014.03.012

 Hutter, J; Iannuzzi, M; Schiffmann, F; VandeVondele, J. 
 WIREs Comput Mol Sci., 4 (1), 15-25 (2014). 
 CP2K: atomistic simulations of condensed matter systems.
 https://doi.org/10.1002/wcms.1159

 Marek, A; Blum, V; Johanni, R; Havu, V; Lang, B; Auckenthaler, T;
 Heinecke, A; Bungartz, H; Lederer, H. 
 Journal of Physics: Condensed Matter, 26 (21), (2014). 
 The ELPA library: scalable parallel eigenvalue solutions for
 electronic structure
 theory and computational science.
 https://doi.org/10.1088/0953-8984/26/21/213201

 Krack, M. 
 THEORETICAL CHEMISTRY ACCOUNTS, 114 (1-3), 145-152 (2005). 
 Pseudopotentials for H to Kr optimized for gradient-corrected
 exchange-correlation functionals.
 https://doi.org/10.1007/s00214-005-0655-y

 VandeVondele, J; Krack, M; Mohamed, F; Parrinello, M; Chassaing, T;
 Hutter, J. COMPUTER PHYSICS COMMUNICATIONS, 167 (2), 103-128 (2005). 
 QUICKSTEP: Fast and accurate density functional calculations using a
 mixed Gaussian and plane waves approach.
 https://doi.org/10.1016/j.cpc.2004.12.014

 Frigo, M; Johnson, SG. 
 PROCEEDINGS OF THE IEEE, 93 (2), 216-231 (2005). 
 The design and implementation of FFTW3.
 https://doi.org/10.1109/JPROC.2004.840301

 VandeVondele, J; Hutter, J. 
 JOURNAL OF CHEMICAL PHYSICS, 118 (10), 4365-4369 (2003). 
 An efficient orbital transformation method for electronic structure
 calculations.
 https://doi.org/10.1063/1.1543154

 Hartwigsen, C; Goedecker, S; Hutter, J. 
 PHYSICAL REVIEW B, 58 (7), 3641-3662 (1998). 
 Relativistic separable dual-space Gaussian pseudopotentials from H to Rn.
 https://doi.org/10.1103/PhysRevB.58.3641

 Lippert, G; Hutter, J; Parrinello, M. 
 MOLECULAR PHYSICS, 92 (3), 477-487 (1997). 
 A hybrid Gaussian and plane wave density functional scheme.
 https://doi.org/10.1080/002689797170220

 Goedecker, S; Teter, M; Hutter, J. 
 PHYSICAL REVIEW B, 54 (3), 1703-1710 (1996). 
 Separable dual-space Gaussian pseudopotentials.
 https://doi.org/10.1103/PhysRevB.54.1703

 BECKE, AD. PHYSICAL REVIEW A, 38 (6), 3098-3100 (1988). 
 DENSITY-FUNCTIONAL EXCHANGE-ENERGY APPROXIMATION WITH CORRECT
 ASYMPTOTIC-BEHAVIOR.
 https://doi.org/10.1103/PhysRevA.38.3098

 LEE, CT; YANG, WT; PARR, RG. 
 PHYSICAL REVIEW B, 37 (2), 785-789 (1988). 
 DEVELOPMENT OF THE COLLE-SALVETTI CORRELATION-ENERGY FORMULA INTO A
 FUNCTIONAL OF THE ELECTRON-DENSITY.
 https://doi.org/10.1103/PhysRevB.37.785


 -------------------------------------------------------------------------------
 -                                                                             -
 -                                T I M I N G                                  -
 -                                                                             -
 -------------------------------------------------------------------------------
 SUBROUTINE                       CALLS  ASD         SELF TIME        TOTAL TIME
                                MAXIMUM       AVERAGE  MAXIMUM  AVERAGE  MAXIMUM
 CP2K                                 1  1.0    0.008    0.008   16.734   16.734
 qs_forces                            1  2.0    0.000    0.000   16.671   16.671
 qs_energies                          1  3.0    0.000    0.000   16.102   16.102
 scf_env_do_scf                       1  4.0    0.000    0.000   16.037   16.037
 scf_env_do_scf_inner_loop           28  5.0    0.002    0.002   15.490   15.490
 rebuild_ks_matrix                   29  6.9    0.000    0.000   15.417   15.417
 qs_ks_build_kohn_sham_matrix        29  7.9    0.003    0.003   15.417   15.417
 qs_ks_update_qs_env                 29  6.0    0.000    0.000   14.849   14.849
 xc_vxc_pw_create                    87  9.9    0.352    0.352   12.146   12.146
 low_spin_roks                       29  8.9    0.033    0.033   10.584   10.584
 pw_transfer                       2872 11.9    0.135    0.135    8.863    8.863
 fft_wrap_pw1pw2                   2814 12.9    0.017    0.017    8.706    8.706
 fft_wrap_pw1pw2_170               1770 14.2    0.481    0.481    8.412    8.412
 xc_rho_set_and_dset_create          87 10.9    0.747    0.747    7.492    7.492
 xc_pw_derive                      1044 11.9    0.005    0.005    6.195    6.195
 fft3d_s                           2815 14.9    4.704    4.704    4.715    4.715
 xc_pw_divergence                   174 10.9    0.003    0.003    4.077    4.077
 qs_vxc_create                       29  8.9    0.000    0.000    4.073    4.073
 xc_functional_eval                 174 11.9    0.001    0.001    3.419    3.419
 lyp_lsd_eval                        87 12.9    2.757    2.757    2.757    2.757
 calculate_rho_elec                 174  8.9    0.042    0.042    2.361    2.361
 density_rs2pw                      174  9.9    0.004    0.004    2.026    2.026
 pw_scatter_s                      1421 15.1    1.938    1.938    1.938    1.938
 pw_gather_s                       1393 14.8    1.534    1.534    1.534    1.534
 integrate_v_rspace                 174  9.9    0.004    0.004    1.310    1.310
 potential_pw2rs                    174 10.9    0.006    0.006    1.102    1.102
 pw_derive                         1044 12.9    0.866    0.866    0.866    0.866
 qs_rho_update_rho_low               29  6.0    0.000    0.000    0.840    0.840
 xb88_lsd_eval                       87 12.9    0.660    0.660    0.660    0.660
 qs_ks_update_qs_env_forces           1  3.0    0.000    0.000    0.569    0.569
 init_scf_loop                        1  5.0    0.000    0.000    0.547    0.547
 pw_copy                           1654 12.1    0.478    0.478    0.478    0.478
 sum_up_and_integrate                29  8.9    0.032    0.032    0.471    0.471
 pw_axpy                           1973 11.2    0.426    0.426    0.426    0.426
 dbcsr_multiply_generic            1346 10.8    0.025    0.025    0.403    0.403
 qs_scf_new_mos                      28  6.0    0.000    0.000    0.382    0.382
 qs_scf_loop_do_ot                   28  7.0    0.000    0.000    0.382    0.382
 ot_scf_mini                         28  8.0    0.000    0.000    0.367    0.367
 -------------------------------------------------------------------------------

 The number of warnings for this run is : 0
 
 -------------------------------------------------------------------------------
  **** **** ******  **  PROGRAM ENDED AT                 2022-12-12 18:08:51.788
 ***** ** ***  *** **   PROGRAM RAN ON                           xissand-MS-7A34
 **    ****   ******    PROGRAM RAN BY                                         j
 ***** **    ** ** **   PROGRAM PROCESS ID                                 99449
  **** **  *******  **  PROGRAM STOPPED IN     /home/j/Study/QMComp/HW/3_cp2k/T1
