 DBCSR| CPU Multiplication driver                                           XSMM
 DBCSR| Multrec recursion limit                                              512
 DBCSR| Multiplication stack size                                           1000
 DBCSR| Maximum elements for images                                    UNLIMITED
 DBCSR| Multiplicative factor virtual images                                   1
 DBCSR| Use multiplication densification                                       T
 DBCSR| Multiplication size stacks                                             3
 DBCSR| Use memory pool for CPU allocation                                     F
 DBCSR| Number of 3D layers                                               SINGLE
 DBCSR| Use MPI memory allocation                                              F
 DBCSR| Use RMA algorithm                                                      F
 DBCSR| Use Communication thread                                               T
 DBCSR| Communication thread load                                             87
 DBCSR| MPI: My node id                                                        0
 DBCSR| MPI: Number of nodes                                                   1
 DBCSR| OMP: Current number of threads                                         1
 DBCSR| OMP: Max number of threads                                             1
 DBCSR| Split modifier for TAS multiplication algorithm                  1.0E+00


  **** **** ******  **  PROGRAM STARTED AT               2022-12-12 18:15:58.918
 ***** ** ***  *** **   PROGRAM STARTED ON                       xissand-MS-7A34
 **    ****   ******    PROGRAM STARTED BY                                     j
 ***** **    ** ** **   PROGRAM PROCESS ID                                101268
  **** **  *******  **  PROGRAM STARTED IN     /home/j/Study/QMComp/HW/3_cp2k/T1

 CP2K| version string:                 CP2K version 2022.1 (Development Version)
 CP2K| source code revision number:                                  git:a213519
 CP2K| cp2kflags: omp fftw3 libxc elpa parallel mpi3 scalapack cosma xsmm spglib
 CP2K|             sirius libvori libbqb libvdwxc
 CP2K| is freely available from                            https://www.cp2k.org/
 CP2K| Program compiled at                       Tue Nov  8 04:05:17 PM MSK 2022
 CP2K| Program compiled on                                       xissand-MS-7A34
 CP2K| Program compiled for                                                local
 CP2K| Data directory path                          /home/j/Study/cp2k/cp2k/data
 CP2K| Input file name                                                  cp2k.inp

 GLOBAL| Force Environment number                                              1
 GLOBAL| Basis set file name                                           BASIS_SET
 GLOBAL| Potential file name                                      GTH_POTENTIALS
 GLOBAL| MM Potential file name                                     MM_POTENTIAL
 GLOBAL| Coordinate file name                                      __STD_INPUT__
 GLOBAL| Method name                                                        CP2K
 GLOBAL| Project name                                                 H2_08_1600
 GLOBAL| Run type                                                   ENERGY_FORCE
 GLOBAL| FFT library                                                       FFTW3
 GLOBAL| Diagonalization library                                            ELPA
 GLOBAL| DGEMM library                                                      BLAS
 GLOBAL| Minimum number of eigenvectors for ELPA usage                        16
 GLOBAL| Orthonormality check for eigenvectors                          DISABLED
 GLOBAL| Matrix multiplication library                                     COSMA
 GLOBAL| All-to-all communication in single precision                          F
 GLOBAL| FFTs using library dependent lengths                                  F
 GLOBAL| Grid backend                                                       AUTO
 GLOBAL| Global print level                                                  LOW
 GLOBAL| MPI I/O enabled                                                       T
 GLOBAL| Total number of message passing processes                             1
 GLOBAL| Number of threads for this process                                    1
 GLOBAL| This output is from process                                           0
 GLOBAL| Stack size for threads created by OpenMP (OMP_STACKSIZE)        default
 GLOBAL| CPU model name                    AMD Ryzen 5 1500X Quad-Core Processor
 GLOBAL| CPUID                                                              1002
 GLOBAL| Compiled for CPUID                                                    0

 *** HINT in environment.F:884 :: The compiler target flags (generic) used ***
 *** to build this binary cannot exploit all extensions of this CPU model  ***
 *** (x86_avx2). Consider compiler target flags as part of FCFLAGS and     ***
 *** CFLAGS (ARCH file).                                                   ***


 MEMORY| system memory details [Kb]
 MEMORY|                        rank 0           min           max       average
 MEMORY| MemTotal             16331996      16331996      16331996      16331996
 MEMORY| MemFree               5940240       5940240       5940240       5940240
 MEMORY| Buffers               1155760       1155760       1155760       1155760
 MEMORY| Cached                4267904       4267904       4267904       4267904
 MEMORY| Slab                   804080        804080        804080        804080
 MEMORY| SReclaimable           630284        630284        630284        630284
 MEMORY| MemLikelyFree        11994188      11994188      11994188      11994188


 GENERATE|  Preliminary Number of Bonds generated:                             0
 GENERATE|  Achieved consistency in connectivity generation.

 *******************************************************************************
 *******************************************************************************
 **                                                                           **
 **     #####                         ##              ##                      **
 **    ##   ##            ##          ##              ##                      **
 **   ##     ##                       ##            ######                    **
 **   ##     ##  ##   ##  ##   #####  ##  ##   ####   ##    #####    #####    **
 **   ##     ##  ##   ##  ##  ##      ## ##   ##      ##   ##   ##  ##   ##   **
 **   ##  ## ##  ##   ##  ##  ##      ####     ###    ##   ######   ######    **
 **    ##  ###   ##   ##  ##  ##      ## ##      ##   ##   ##       ##        **
 **     #######   #####   ##   #####  ##  ##  ####    ##    #####   ##        **
 **           ##                                                    ##        **
 **                                                                           **
 **                                                ... make the atoms dance   **
 **                                                                           **
 **            Copyright (C) by CP2K developers group (2000-2022)             **
 **                      J. Chem. Phys. 152, 194103 (2020)                    **
 **                                                                           **
 *******************************************************************************
 
  **************************************
  restricted calculation cutting corners
  experimental feature, check code      
  **************************************


 TOTAL NUMBERS AND MAXIMUM NUMBERS

  Total number of            - Atomic kinds:                                   1
                             - Atoms:                                          2
                             - Shell sets:                                     4
                             - Shells:                                         6
                             - Primitive Cartesian functions:                 10
                             - Cartesian basis functions:                     10
                             - Spherical basis functions:                     10

  Maximum angular momentum of- Orbital basis functions:                        1
                             - Local part of the GTH pseudopotential:          2


 SCF PARAMETERS         Density guess:                                    ATOMIC
                        --------------------------------------------------------
                        max_scf:                                             400
                        max_scf_history:                                       0
                        max_diis:                                              4
                        --------------------------------------------------------
                        eps_scf:                                        1.00E-06
                        eps_scf_history:                                0.00E+00
                        eps_diis:                                       1.00E-01
                        eps_eigval:                                     1.00E-05
                        --------------------------------------------------------
                        level_shift [a.u.]:                             0.000000
                        --------------------------------------------------------
                        No outer SCF

 Spin 1

 Number of electrons:                                                          2
 Number of occupied orbitals:                                                  2
 Number of molecular orbitals:                                                 2

 Spin 2

 Number of electrons:                                                          0
 Number of occupied orbitals:                                                  0
 Number of molecular orbitals:                                                 0

 Number of orbital functions:                                                 10
 Number of independent orbital functions:                                     10

 Extrapolation method: initial_guess


 SCF WAVEFUNCTION OPTIMIZATION

  ----------------------------------- OT ---------------------------------------
  Allowing for rotations 
  Minimizer      : DIIS                : direct inversion
                                         in the iterative subspace
                                         using   7 DIIS vectors
                                         safer DIIS on
  Preconditioner : FULL_SINGLE         : diagonalization based
  Precond_solver : DEFAULT
  stepsize       :    0.15000000                  energy_gap     :    0.20000000
  eps_taylor     :   0.10000E-15                  max_taylor     :             4
  ----------------------------------- OT ---------------------------------------

  Step     Update method      Time    Convergence         Total energy    Change
  ------------------------------------------------------------------------------
     1 OT DIIS     0.15E+00    0.6     0.06041382        -0.8695431347 -8.70E-01
     2 OT DIIS     0.15E+00    0.6     0.06097333        -0.8805054797 -1.10E-02
     3 OT SD       0.15E+00    0.6     0.06116669        -0.8820986181 -1.59E-03
     4 OT SD       0.15E+00    0.5     0.06204312        -0.8933921580 -1.13E-02
     5 OT SD       0.15E+00    0.5     0.06247817        -0.9049869049 -1.16E-02
     6 OT DIIS     0.15E+00    0.5     0.06162589        -0.9166314705 -1.16E-02
     7 OT DIIS     0.15E+00    0.5     0.10015082        -0.8915516538  2.51E-02
     8 OT DIIS     0.15E+00    0.5     0.09834345        -0.8155365901  7.60E-02
     9 OT DIIS     0.15E+00    0.6     0.09510425        -0.8906900015 -7.52E-02
    10 OT DIIS     0.15E+00    0.5     0.27798930        -0.4464457092  4.44E-01
    11 OT DIIS     0.15E+00    0.5     0.06937564        -0.9255606211 -4.79E-01
    12 OT DIIS     0.15E+00    0.6     0.03304527        -0.9778661834 -5.23E-02
    13 OT DIIS     0.15E+00    0.5     0.08360731        -0.8815140338  9.64E-02
    14 OT DIIS     0.15E+00    0.5     0.04769461        -0.9656516064 -8.41E-02
    15 OT DIIS     0.15E+00    0.5     0.04531003        -0.9716888274 -6.04E-03
    16 OT DIIS     0.15E+00    0.5     0.01324777        -0.9820529940 -1.04E-02
    17 OT DIIS     0.15E+00    0.5     0.05503732        -0.9574334659  2.46E-02
    18 OT DIIS     0.15E+00    0.6     0.04615736        -0.9726027505 -1.52E-02
    19 OT DIIS     0.15E+00    0.5     0.00972341        -0.9823393225 -9.74E-03
    20 OT SD       0.15E+00    0.5     0.00722296        -0.9824998786 -1.61E-04
    21 OT SD       0.15E+00    0.5     0.00439707        -0.9826256216 -1.26E-04
    22 OT DIIS     0.15E+00    0.5     0.00270819        -0.9826724341 -4.68E-05
    23 OT DIIS     0.15E+00    0.5     0.00058515        -0.9827008674 -2.84E-05
    24 OT DIIS     0.15E+00    0.5     0.00043569        -0.9827014597 -5.92E-07
    25 OT DIIS     0.15E+00    0.5     0.00050565        -0.9827010233  4.36E-07
    26 OT DIIS     0.15E+00    0.6     0.00000109        -0.9827021765 -1.15E-06
    27 OT DIIS     0.15E+00    0.6     0.00000023        -0.9827021765 -8.94E-12

  *** SCF run converged in    27 steps ***


  Electronic density on regular grids:         -1.9999999994        0.0000000006
  Core density on regular grids:                1.9999999999       -0.0000000001
  Total charge density on r-space grids:        0.0000000005
  Total charge density g-space grids:           0.0000000005

  Overlap energy of the core charge distribution:               0.00000000000000
  Self energy of the core charge distribution:                 -2.82094791773878
  Core Hamiltonian energy:                                      0.96304114312724
  Hartree energy:                                               1.51880427150917
  Exchange-correlation energy:                                 -0.64359967344408

  Total energy:                                                -0.98270217654646

  Integrated absolute spin density  :                               1.9999999994
  Ideal and single determinant S**2 :                    2.000000       2.000000

 ENERGY| Total FORCE_EVAL ( QS ) energy [a.u.]:               -0.982702176546849

 -------------------------------------------------------------------------------
 -                                                                             -
 -                                DBCSR STATISTICS                             -
 -                                                                             -
 -------------------------------------------------------------------------------
 COUNTER                                    TOTAL       BLAS       SMM       ACC
 flops     2 x     2 x     2                 8368      26.0%     74.0%      0.0%
 flops     2 x     2 x    10                10800       0.0%    100.0%      0.0%
 flops    10 x     2 x    10                11200       0.0%    100.0%      0.0%
 flops    10 x     2 x     2                12880       0.0%    100.0%      0.0%
 flops     5 x     5 x     2                42300       0.0%    100.0%      0.0%
 flops     5 x     2 x     5                68800       0.0%    100.0%      0.0%
 flops inhomo. stacks                           0       0.0%      0.0%      0.0%
 flops total                       154.348000E+03       1.4%     98.6%      0.0%
 flops max/rank                    154.348000E+03       1.4%     98.6%      0.0%
 matmuls inhomo. stacks                         0       0.0%      0.0%      0.0%
 matmuls total                               1958       6.9%     93.1%      0.0%
 number of processed stacks                  1160      11.7%     88.3%      0.0%
 average stack size                                     1.0       1.8       0.0
 marketing flops                   168.528000E+03
 -------------------------------------------------------------------------------
 # multiplications                           1216
 max memory usage/rank             273.829888E+06
 # max total images/rank                        1
 # max 3D layers                                1
 # MPI messages exchanged                       0
 -------------------------------------------------------------------------------
 -                                                                             -
 -                      DBCSR MESSAGE PASSING PERFORMANCE                      -
 -                                                                             -
 -------------------------------------------------------------------------------
 ROUTINE             CALLS      AVE VOLUME [Bytes]
 MP_Bcast                7                     12.
 MP_Allreduce         6349                      8.
 MP_Alltoall          5579                     35.
 MP_ISend             4696                     34.
 MP_IRecv             4696                     34.
 -------------------------------------------------------------------------------

 -------------------------------------------------------------------------------
 -                                                                             -
 -                                DBM STATISTICS                               -
 -                                                                             -
 -------------------------------------------------------------------------------
    M  x    N  x    K                                          COUNT     PERCENT
 -------------------------------------------------------------------------------

 -------------------------------------------------------------------------------
 -                                                                             -
 -                                GRID STATISTICS                              -
 -                                                                             -
 -------------------------------------------------------------------------------
 LP    KERNEL             BACKEND                              COUNT     PERCENT
 0     collocate ortho    REF                                  29232      34.80%
 0     integrate ortho    REF                                  28188      33.56%
 1     integrate ortho    REF                                  12708      15.13%
 1     collocate ortho    REF                                  12096      14.40%
 2     integrate ortho    REF                                   1080       1.29%
 2     collocate ortho    REF                                    672       0.80%
 3     integrate ortho    REF                                     24       0.03%
 0     collocate general  REF                                      2       0.00%
 1     integrate general  REF                                      2       0.00%
 -------------------------------------------------------------------------------

 MEMORY| Estimated peak process memory [MiB]                                 262

 -------------------------------------------------------------------------------
 -                                                                             -
 -                         MESSAGE PASSING PERFORMANCE                         -
 -                                                                             -
 -------------------------------------------------------------------------------

 ROUTINE             CALLS      AVE VOLUME [Bytes]
 MP_Group                4
 MP_Bcast              128                   1855.
 MP_Allreduce          889                      8.
 MP_Sync                10
 -------------------------------------------------------------------------------


 -------------------------------------------------------------------------------
 -                                                                             -
 -                           R E F E R E N C E S                               -
 -                                                                             -
 -------------------------------------------------------------------------------
 
 CP2K version 2022.1 (Development Version), the CP2K developers group (2022).
 CP2K is freely available from https://www.cp2k.org/ .

 Kuehne,Thomas D.; Iannuzzi,Marcella; Del Ben,Mauro;
 Rybkin,Vladimir V.; Seewald,Patrick; Stein,Frederick; Laino,Teodoro;
 Khaliullin,Rustam Z.; Schuett,Ole; Schiffmann,Florian; Golze,Dorothea;
 Wilhelm,Jan; Chulkov,Sergey; Bani-Hashemian,Mohammad Hossein;
 Weber,Valery; Borstnik,Urban; Taillefumier,Mathieu;
 Jakobovits,Alice Shoshana; Lazzaro,Alfio; Pabst,Hans; Mueller,Tiziano;
 Schade,Robert; Guidon,Manuel; Andermatt,Samuel; Holmberg,Nico;
 Schenter,Gregory K.; Hehn,Anna; Bussy,Augustin; Belleflamme,Fabian;
 Tabacchi,Gloria; Gloess,Andreas; Lass,Michael; Bethune,Iain;
 Mundy,Christopher J.; Plessl,Christian; Watkins,Matt;
 VandeVondele,Joost; Krack,Matthias; Hutter,Juerg. 
 The Journal of Chemical Physics, 152 (19), (2020). 
 CP2K: An electronic structure and molecular dynamics software package -
 Quickstep: Efficient and accurate electronic structure calculations.
 https://doi.org/10.1063/5.0007045

 Schuett, Ole; Messmer, Peter; Hutter, Juerg; VandeVondele, Joost. 
 Electronic Structure Calculations on Graphics Processing Units, John
 Wiley & Sons, Ltd, 173-190 (2016). 
 GPU-Accelerated Sparse Matrix-Matrix Multiplication for
 Linear Scaling Density Functional Theory.
 https://doi.org/10.1002/9781118670712.ch8

 Heinecke, A; Henry, G; Hutchinson, M; Pabst, H. 
 Proceedings of Intl. Supercomputing Conference, 981-991 (2016). 
 LIBXSMM: Accelerating Small Matrix Multiplications
 by Runtime Code Generation.
 https://doi.org/10.1109/SC.2016.83

 Borstnik, U; VandeVondele, J; Weber, V; Hutter, J. 
 PARALLEL COMPUTING, 40 (5-6), 47-58 (2014). 
 Sparse matrix multiplication: The distributed block-compressed sparse
 row library.
 https://doi.org/10.1016/j.parco.2014.03.012

 Hutter, J; Iannuzzi, M; Schiffmann, F; VandeVondele, J. 
 WIREs Comput Mol Sci., 4 (1), 15-25 (2014). 
 CP2K: atomistic simulations of condensed matter systems.
 https://doi.org/10.1002/wcms.1159

 Marek, A; Blum, V; Johanni, R; Havu, V; Lang, B; Auckenthaler, T;
 Heinecke, A; Bungartz, H; Lederer, H. 
 Journal of Physics: Condensed Matter, 26 (21), (2014). 
 The ELPA library: scalable parallel eigenvalue solutions for
 electronic structure
 theory and computational science.
 https://doi.org/10.1088/0953-8984/26/21/213201

 Krack, M. 
 THEORETICAL CHEMISTRY ACCOUNTS, 114 (1-3), 145-152 (2005). 
 Pseudopotentials for H to Kr optimized for gradient-corrected
 exchange-correlation functionals.
 https://doi.org/10.1007/s00214-005-0655-y

 VandeVondele, J; Krack, M; Mohamed, F; Parrinello, M; Chassaing, T;
 Hutter, J. COMPUTER PHYSICS COMMUNICATIONS, 167 (2), 103-128 (2005). 
 QUICKSTEP: Fast and accurate density functional calculations using a
 mixed Gaussian and plane waves approach.
 https://doi.org/10.1016/j.cpc.2004.12.014

 Frigo, M; Johnson, SG. 
 PROCEEDINGS OF THE IEEE, 93 (2), 216-231 (2005). 
 The design and implementation of FFTW3.
 https://doi.org/10.1109/JPROC.2004.840301

 VandeVondele, J; Hutter, J. 
 JOURNAL OF CHEMICAL PHYSICS, 118 (10), 4365-4369 (2003). 
 An efficient orbital transformation method for electronic structure
 calculations.
 https://doi.org/10.1063/1.1543154

 Hartwigsen, C; Goedecker, S; Hutter, J. 
 PHYSICAL REVIEW B, 58 (7), 3641-3662 (1998). 
 Relativistic separable dual-space Gaussian pseudopotentials from H to Rn.
 https://doi.org/10.1103/PhysRevB.58.3641

 Lippert, G; Hutter, J; Parrinello, M. 
 MOLECULAR PHYSICS, 92 (3), 477-487 (1997). 
 A hybrid Gaussian and plane wave density functional scheme.
 https://doi.org/10.1080/002689797170220

 Goedecker, S; Teter, M; Hutter, J. 
 PHYSICAL REVIEW B, 54 (3), 1703-1710 (1996). 
 Separable dual-space Gaussian pseudopotentials.
 https://doi.org/10.1103/PhysRevB.54.1703

 BECKE, AD. PHYSICAL REVIEW A, 38 (6), 3098-3100 (1988). 
 DENSITY-FUNCTIONAL EXCHANGE-ENERGY APPROXIMATION WITH CORRECT
 ASYMPTOTIC-BEHAVIOR.
 https://doi.org/10.1103/PhysRevA.38.3098

 LEE, CT; YANG, WT; PARR, RG. 
 PHYSICAL REVIEW B, 37 (2), 785-789 (1988). 
 DEVELOPMENT OF THE COLLE-SALVETTI CORRELATION-ENERGY FORMULA INTO A
 FUNCTIONAL OF THE ELECTRON-DENSITY.
 https://doi.org/10.1103/PhysRevB.37.785


 -------------------------------------------------------------------------------
 -                                                                             -
 -                                T I M I N G                                  -
 -                                                                             -
 -------------------------------------------------------------------------------
 SUBROUTINE                       CALLS  ASD         SELF TIME        TOTAL TIME
                                MAXIMUM       AVERAGE  MAXIMUM  AVERAGE  MAXIMUM
 CP2K                                 1  1.0    0.008    0.008   15.445   15.445
 qs_forces                            1  2.0    0.000    0.000   15.384   15.384
 qs_energies                          1  3.0    0.000    0.000   14.877   14.877
 scf_env_do_scf                       1  4.0    0.000    0.000   14.815   14.815
 scf_env_do_scf_inner_loop           27  5.0    0.002    0.002   14.275   14.275
 rebuild_ks_matrix                   28  6.9    0.000    0.000   14.268   14.268
 qs_ks_build_kohn_sham_matrix        28  7.9    0.003    0.003   14.268   14.268
 qs_ks_update_qs_env                 28  6.0    0.000    0.000   13.763   13.763
 xc_vxc_pw_create                    84  9.9    0.329    0.329   11.216   11.216
 low_spin_roks                       28  8.9    0.031    0.031    9.908    9.908
 pw_transfer                       2773 11.9    0.124    0.124    8.173    8.173
 fft_wrap_pw1pw2                   2717 12.9    0.016    0.016    8.029    8.029
 fft_wrap_pw1pw2_170               1709 14.2    0.451    0.451    7.749    7.749
 xc_rho_set_and_dset_create          84 10.9    0.697    0.697    6.965    6.965
 xc_pw_derive                      1008 11.9    0.005    0.005    5.703    5.703
 fft3d_s                           2718 14.9    4.393    4.393    4.403    4.403
 xc_pw_divergence                   168 10.9    0.002    0.002    3.717    3.717
 qs_vxc_create                       28  8.9    0.000    0.000    3.669    3.669
 xc_functional_eval                 168 11.9    0.001    0.001    3.178    3.178
 lyp_lsd_eval                        84 12.9    2.561    2.561    2.561    2.561
 calculate_rho_elec                 168  8.9    0.040    0.040    2.225    2.225
 density_rs2pw                      168  9.9    0.004    0.004    1.906    1.906
 pw_scatter_s                      1372 15.1    1.788    1.788    1.788    1.788
 pw_gather_s                       1345 14.8    1.352    1.352    1.352    1.352
 integrate_v_rspace                 168  9.9    0.003    0.003    1.198    1.198
 potential_pw2rs                    168 10.9    0.005    0.005    1.014    1.014
 pw_derive                         1008 12.9    0.799    0.799    0.799    0.799
 qs_rho_update_rho_low               28  6.0    0.000    0.000    0.773    0.773
 xb88_lsd_eval                       84 12.9    0.616    0.616    0.616    0.616
 init_scf_loop                        1  5.0    0.000    0.000    0.540    0.540
 qs_ks_update_qs_env_forces           1  3.0    0.000    0.000    0.506    0.506
 pw_copy                           1597 12.1    0.451    0.451    0.451    0.451
 sum_up_and_integrate                28  8.9    0.030    0.030    0.427    0.427
 pw_axpy                           1905 11.2    0.393    0.393    0.393    0.393
 dbcsr_multiply_generic            1216 10.7    0.021    0.021    0.332    0.332
 qs_scf_new_mos                      27  6.0    0.000    0.000    0.311    0.311
 qs_scf_loop_do_ot                   27  7.0    0.000    0.000    0.311    0.311
 -------------------------------------------------------------------------------

 The number of warnings for this run is : 0
 
 -------------------------------------------------------------------------------
  **** **** ******  **  PROGRAM ENDED AT                 2022-12-12 18:16:14.881
 ***** ** ***  *** **   PROGRAM RAN ON                           xissand-MS-7A34
 **    ****   ******    PROGRAM RAN BY                                         j
 ***** **    ** ** **   PROGRAM PROCESS ID                                101268
  **** **  *******  **  PROGRAM STOPPED IN     /home/j/Study/QMComp/HW/3_cp2k/T1
