 DBCSR| CPU Multiplication driver                                           XSMM
 DBCSR| Multrec recursion limit                                              512
 DBCSR| Multiplication stack size                                           1000
 DBCSR| Maximum elements for images                                    UNLIMITED
 DBCSR| Multiplicative factor virtual images                                   1
 DBCSR| Use multiplication densification                                       T
 DBCSR| Multiplication size stacks                                             3
 DBCSR| Use memory pool for CPU allocation                                     F
 DBCSR| Number of 3D layers                                               SINGLE
 DBCSR| Use MPI memory allocation                                              F
 DBCSR| Use RMA algorithm                                                      F
 DBCSR| Use Communication thread                                               T
 DBCSR| Communication thread load                                             87
 DBCSR| MPI: My node id                                                        0
 DBCSR| MPI: Number of nodes                                                   1
 DBCSR| OMP: Current number of threads                                         1
 DBCSR| OMP: Max number of threads                                             1
 DBCSR| Split modifier for TAS multiplication algorithm                  1.0E+00


  **** **** ******  **  PROGRAM STARTED AT               2022-12-12 18:01:30.448
 ***** ** ***  *** **   PROGRAM STARTED ON                       xissand-MS-7A34
 **    ****   ******    PROGRAM STARTED BY                                     j
 ***** **    ** ** **   PROGRAM PROCESS ID                                 96818
  **** **  *******  **  PROGRAM STARTED IN     /home/j/Study/QMComp/HW/3_cp2k/T1

 CP2K| version string:                 CP2K version 2022.1 (Development Version)
 CP2K| source code revision number:                                  git:a213519
 CP2K| cp2kflags: omp fftw3 libxc elpa parallel mpi3 scalapack cosma xsmm spglib
 CP2K|             sirius libvori libbqb libvdwxc
 CP2K| is freely available from                            https://www.cp2k.org/
 CP2K| Program compiled at                       Tue Nov  8 04:05:17 PM MSK 2022
 CP2K| Program compiled on                                       xissand-MS-7A34
 CP2K| Program compiled for                                                local
 CP2K| Data directory path                          /home/j/Study/cp2k/cp2k/data
 CP2K| Input file name                                                  cp2k.inp

 GLOBAL| Force Environment number                                              1
 GLOBAL| Basis set file name                                           BASIS_SET
 GLOBAL| Potential file name                                      GTH_POTENTIALS
 GLOBAL| MM Potential file name                                     MM_POTENTIAL
 GLOBAL| Coordinate file name                                      __STD_INPUT__
 GLOBAL| Method name                                                        CP2K
 GLOBAL| Project name                                                 H2_08_1600
 GLOBAL| Run type                                                   ENERGY_FORCE
 GLOBAL| FFT library                                                       FFTW3
 GLOBAL| Diagonalization library                                            ELPA
 GLOBAL| DGEMM library                                                      BLAS
 GLOBAL| Minimum number of eigenvectors for ELPA usage                        16
 GLOBAL| Orthonormality check for eigenvectors                          DISABLED
 GLOBAL| Matrix multiplication library                                     COSMA
 GLOBAL| All-to-all communication in single precision                          F
 GLOBAL| FFTs using library dependent lengths                                  F
 GLOBAL| Grid backend                                                       AUTO
 GLOBAL| Global print level                                                  LOW
 GLOBAL| MPI I/O enabled                                                       T
 GLOBAL| Total number of message passing processes                             1
 GLOBAL| Number of threads for this process                                    1
 GLOBAL| This output is from process                                           0
 GLOBAL| Stack size for threads created by OpenMP (OMP_STACKSIZE)        default
 GLOBAL| CPU model name                    AMD Ryzen 5 1500X Quad-Core Processor
 GLOBAL| CPUID                                                              1002
 GLOBAL| Compiled for CPUID                                                    0

 *** HINT in environment.F:884 :: The compiler target flags (generic) used ***
 *** to build this binary cannot exploit all extensions of this CPU model  ***
 *** (x86_avx2). Consider compiler target flags as part of FCFLAGS and     ***
 *** CFLAGS (ARCH file).                                                   ***


 MEMORY| system memory details [Kb]
 MEMORY|                        rank 0           min           max       average
 MEMORY| MemTotal             16331996      16331996      16331996      16331996
 MEMORY| MemFree               5843796       5843796       5843796       5843796
 MEMORY| Buffers               1149696       1149696       1149696       1149696
 MEMORY| Cached                4231804       4231804       4231804       4231804
 MEMORY| Slab                   800112        800112        800112        800112
 MEMORY| SReclaimable           627088        627088        627088        627088
 MEMORY| MemLikelyFree        11852384      11852384      11852384      11852384


 GENERATE|  Preliminary Number of Bonds generated:                             0
 GENERATE|  Achieved consistency in connectivity generation.

 *******************************************************************************
 *******************************************************************************
 **                                                                           **
 **     #####                         ##              ##                      **
 **    ##   ##            ##          ##              ##                      **
 **   ##     ##                       ##            ######                    **
 **   ##     ##  ##   ##  ##   #####  ##  ##   ####   ##    #####    #####    **
 **   ##     ##  ##   ##  ##  ##      ## ##   ##      ##   ##   ##  ##   ##   **
 **   ##  ## ##  ##   ##  ##  ##      ####     ###    ##   ######   ######    **
 **    ##  ###   ##   ##  ##  ##      ## ##      ##   ##   ##       ##        **
 **     #######   #####   ##   #####  ##  ##  ####    ##    #####   ##        **
 **           ##                                                    ##        **
 **                                                                           **
 **                                                ... make the atoms dance   **
 **                                                                           **
 **            Copyright (C) by CP2K developers group (2000-2022)             **
 **                      J. Chem. Phys. 152, 194103 (2020)                    **
 **                                                                           **
 *******************************************************************************
 
  **************************************
  restricted calculation cutting corners
  experimental feature, check code      
  **************************************


 TOTAL NUMBERS AND MAXIMUM NUMBERS

  Total number of            - Atomic kinds:                                   1
                             - Atoms:                                          2
                             - Shell sets:                                     4
                             - Shells:                                         6
                             - Primitive Cartesian functions:                 10
                             - Cartesian basis functions:                     10
                             - Spherical basis functions:                     10

  Maximum angular momentum of- Orbital basis functions:                        1
                             - Local part of the GTH pseudopotential:          2


 SCF PARAMETERS         Density guess:                                    ATOMIC
                        --------------------------------------------------------
                        max_scf:                                             400
                        max_scf_history:                                       0
                        max_diis:                                              4
                        --------------------------------------------------------
                        eps_scf:                                        1.00E-06
                        eps_scf_history:                                0.00E+00
                        eps_diis:                                       1.00E-01
                        eps_eigval:                                     1.00E-05
                        --------------------------------------------------------
                        level_shift [a.u.]:                             0.000000
                        --------------------------------------------------------
                        No outer SCF

 Spin 1

 Number of electrons:                                                          2
 Number of occupied orbitals:                                                  2
 Number of molecular orbitals:                                                 2

 Spin 2

 Number of electrons:                                                          0
 Number of occupied orbitals:                                                  0
 Number of molecular orbitals:                                                 0

 Number of orbital functions:                                                 10
 Number of independent orbital functions:                                     10

 Extrapolation method: initial_guess


 SCF WAVEFUNCTION OPTIMIZATION

  ----------------------------------- OT ---------------------------------------
  Allowing for rotations 
  Minimizer      : DIIS                : direct inversion
                                         in the iterative subspace
                                         using   7 DIIS vectors
                                         safer DIIS on
  Preconditioner : FULL_SINGLE         : diagonalization based
  Precond_solver : DEFAULT
  stepsize       :    0.15000000                  energy_gap     :    0.20000000
  eps_taylor     :   0.10000E-15                  max_taylor     :             4
  ----------------------------------- OT ---------------------------------------

  Step     Update method      Time    Convergence         Total energy    Change
  ------------------------------------------------------------------------------
     1 OT DIIS     0.15E+00    0.6     0.32617137        -0.2121376371 -2.12E-01
     2 OT DIIS     0.15E+00    0.6     0.20261932        -0.4147537199 -2.03E-01
     3 OT DIIS     0.15E+00    0.6     0.12606352        -0.4898165346 -7.51E-02
     4 OT DIIS     0.15E+00    0.6     0.06201617        -0.5406684899 -5.09E-02
     5 OT DIIS     0.15E+00    0.6     0.01862757        -0.5463348826 -5.67E-03
     6 OT DIIS     0.15E+00    0.6     0.00600607        -0.5473175368 -9.83E-04
     7 OT DIIS     0.15E+00    0.6     0.00412006        -0.5473778305 -6.03E-05
     8 OT DIIS     0.15E+00    0.6     0.00152284        -0.5474359259 -5.81E-05
     9 OT DIIS     0.15E+00    0.6     0.00060875        -0.5474427091 -6.78E-06
    10 OT DIIS     0.15E+00    0.6     0.00152864        -0.5474428263 -1.17E-07
    11 OT DIIS     0.15E+00    0.6     0.00051598        -0.5474462863 -3.46E-06
    12 OT DIIS     0.15E+00    0.6     0.00050806        -0.5474481957 -1.91E-06
    13 OT DIIS     0.15E+00    0.6     0.00047341        -0.5474620709 -1.39E-05
    14 OT DIIS     0.15E+00    0.6     0.00039578        -0.5474938029 -3.17E-05
    15 OT DIIS     0.15E+00    0.6     0.00039309        -0.5475192019 -2.54E-05
    16 OT DIIS     0.15E+00    0.6     0.00012981        -0.5475200991 -8.97E-07
    17 OT DIIS     0.15E+00    0.6     0.00018502        -0.5475226971 -2.60E-06
    18 OT DIIS     0.15E+00    0.6     0.00006629        -0.5475227578 -6.07E-08
    19 OT DIIS     0.15E+00    0.6     0.00013912        -0.5475227597 -1.87E-09
    20 OT DIIS     0.15E+00    0.6     0.00001671        -0.5475228054 -4.57E-08
    21 OT DIIS     0.15E+00    0.6     0.00000562        -0.5475228059 -4.79E-10
    22 OT DIIS     0.15E+00    0.6     0.00000215        -0.5475228061 -1.95E-10
    23 OT SD       0.15E+00    0.6     0.00000106        -0.5475228061 -5.44E-12
    24 OT DIIS     0.15E+00    0.6     0.00000086        -0.5475228061 -2.03E-12

  *** SCF run converged in    24 steps ***


  Electronic density on regular grids:         -2.0000000013       -0.0000000013
  Core density on regular grids:                1.9999999999       -0.0000000001
  Total charge density on r-space grids:       -0.0000000015
  Total charge density g-space grids:          -0.0000000015

  Overlap energy of the core charge distribution:               0.00022915400303
  Self energy of the core charge distribution:                 -2.82094791773878
  Core Hamiltonian energy:                                      1.22481152939200
  Hartree energy:                                               1.69514444026414
  Exchange-correlation energy:                                 -0.64676001201850

  Total energy:                                                -0.54752280609811

  Integrated absolute spin density  :                               2.0000000013
  Ideal and single determinant S**2 :                    2.000000       2.000000

 ENERGY| Total FORCE_EVAL ( QS ) energy [a.u.]:               -0.547522806103803

 -------------------------------------------------------------------------------
 -                                                                             -
 -                                DBCSR STATISTICS                             -
 -                                                                             -
 -------------------------------------------------------------------------------
 COUNTER                                    TOTAL       BLAS       SMM       ACC
 flops     2 x     2 x     2                 6448      30.0%     70.0%      0.0%
 flops     2 x     2 x    10                 9600       0.0%    100.0%      0.0%
 flops    10 x     2 x    10                10000       0.0%    100.0%      0.0%
 flops    10 x     2 x     2                11440       0.0%    100.0%      0.0%
 flops     5 x     5 x     2                37800       0.0%    100.0%      0.0%
 flops     5 x     2 x     5                61600       0.0%    100.0%      0.0%
 flops inhomo. stacks                           0       0.0%      0.0%      0.0%
 flops total                       136.888000E+03       1.4%     98.6%      0.0%
 flops max/rank                    136.888000E+03       1.4%     98.6%      0.0%
 matmuls inhomo. stacks                         0       0.0%      0.0%      0.0%
 matmuls total                               1685       7.2%     92.8%      0.0%
 number of processed stacks                   971      12.5%     87.5%      0.0%
 average stack size                                     1.0       1.8       0.0
 marketing flops                   149.568000E+03
 -------------------------------------------------------------------------------
 # multiplications                           1021
 max memory usage/rank             273.358848E+06
 # max total images/rank                        1
 # max 3D layers                                1
 # MPI messages exchanged                       0
 -------------------------------------------------------------------------------
 -                                                                             -
 -                      DBCSR MESSAGE PASSING PERFORMANCE                      -
 -                                                                             -
 -------------------------------------------------------------------------------
 ROUTINE             CALLS      AVE VOLUME [Bytes]
 MP_Bcast                7                     12.
 MP_Allreduce         5341                      8.
 MP_Alltoall          5130                     36.
 MP_ISend             3934                     34.
 MP_IRecv             3934                     34.
 -------------------------------------------------------------------------------

 -------------------------------------------------------------------------------
 -                                                                             -
 -                                DBM STATISTICS                               -
 -                                                                             -
 -------------------------------------------------------------------------------
    M  x    N  x    K                                          COUNT     PERCENT
 -------------------------------------------------------------------------------

 -------------------------------------------------------------------------------
 -                                                                             -
 -                                GRID STATISTICS                              -
 -                                                                             -
 -------------------------------------------------------------------------------
 LP    KERNEL             BACKEND                              COUNT     PERCENT
 0     collocate ortho    REF                                  26250      36.31%
 0     integrate ortho    REF                                  25200      34.85%
 1     integrate ortho    REF                                   9978      13.80%
 1     collocate ortho    REF                                   9300      12.86%
 2     integrate ortho    REF                                    948       1.31%
 2     collocate ortho    REF                                    600       0.83%
 3     integrate ortho    REF                                     24       0.03%
 0     collocate general  REF                                      2       0.00%
 1     integrate general  REF                                      2       0.00%
 -------------------------------------------------------------------------------

 MEMORY| Estimated peak process memory [MiB]                                 261

 -------------------------------------------------------------------------------
 -                                                                             -
 -                         MESSAGE PASSING PERFORMANCE                         -
 -                                                                             -
 -------------------------------------------------------------------------------

 ROUTINE             CALLS      AVE VOLUME [Bytes]
 MP_Group                4
 MP_Bcast              148                   1435.
 MP_Allreduce          961                      9.
 MP_Sync                30
 -------------------------------------------------------------------------------


 -------------------------------------------------------------------------------
 -                                                                             -
 -                           R E F E R E N C E S                               -
 -                                                                             -
 -------------------------------------------------------------------------------
 
 CP2K version 2022.1 (Development Version), the CP2K developers group (2022).
 CP2K is freely available from https://www.cp2k.org/ .

 Kuehne,Thomas D.; Iannuzzi,Marcella; Del Ben,Mauro;
 Rybkin,Vladimir V.; Seewald,Patrick; Stein,Frederick; Laino,Teodoro;
 Khaliullin,Rustam Z.; Schuett,Ole; Schiffmann,Florian; Golze,Dorothea;
 Wilhelm,Jan; Chulkov,Sergey; Bani-Hashemian,Mohammad Hossein;
 Weber,Valery; Borstnik,Urban; Taillefumier,Mathieu;
 Jakobovits,Alice Shoshana; Lazzaro,Alfio; Pabst,Hans; Mueller,Tiziano;
 Schade,Robert; Guidon,Manuel; Andermatt,Samuel; Holmberg,Nico;
 Schenter,Gregory K.; Hehn,Anna; Bussy,Augustin; Belleflamme,Fabian;
 Tabacchi,Gloria; Gloess,Andreas; Lass,Michael; Bethune,Iain;
 Mundy,Christopher J.; Plessl,Christian; Watkins,Matt;
 VandeVondele,Joost; Krack,Matthias; Hutter,Juerg. 
 The Journal of Chemical Physics, 152 (19), (2020). 
 CP2K: An electronic structure and molecular dynamics software package -
 Quickstep: Efficient and accurate electronic structure calculations.
 https://doi.org/10.1063/5.0007045

 Schuett, Ole; Messmer, Peter; Hutter, Juerg; VandeVondele, Joost. 
 Electronic Structure Calculations on Graphics Processing Units, John
 Wiley & Sons, Ltd, 173-190 (2016). 
 GPU-Accelerated Sparse Matrix-Matrix Multiplication for
 Linear Scaling Density Functional Theory.
 https://doi.org/10.1002/9781118670712.ch8

 Heinecke, A; Henry, G; Hutchinson, M; Pabst, H. 
 Proceedings of Intl. Supercomputing Conference, 981-991 (2016). 
 LIBXSMM: Accelerating Small Matrix Multiplications
 by Runtime Code Generation.
 https://doi.org/10.1109/SC.2016.83

 Borstnik, U; VandeVondele, J; Weber, V; Hutter, J. 
 PARALLEL COMPUTING, 40 (5-6), 47-58 (2014). 
 Sparse matrix multiplication: The distributed block-compressed sparse
 row library.
 https://doi.org/10.1016/j.parco.2014.03.012

 Hutter, J; Iannuzzi, M; Schiffmann, F; VandeVondele, J. 
 WIREs Comput Mol Sci., 4 (1), 15-25 (2014). 
 CP2K: atomistic simulations of condensed matter systems.
 https://doi.org/10.1002/wcms.1159

 Marek, A; Blum, V; Johanni, R; Havu, V; Lang, B; Auckenthaler, T;
 Heinecke, A; Bungartz, H; Lederer, H. 
 Journal of Physics: Condensed Matter, 26 (21), (2014). 
 The ELPA library: scalable parallel eigenvalue solutions for
 electronic structure
 theory and computational science.
 https://doi.org/10.1088/0953-8984/26/21/213201

 Krack, M. 
 THEORETICAL CHEMISTRY ACCOUNTS, 114 (1-3), 145-152 (2005). 
 Pseudopotentials for H to Kr optimized for gradient-corrected
 exchange-correlation functionals.
 https://doi.org/10.1007/s00214-005-0655-y

 VandeVondele, J; Krack, M; Mohamed, F; Parrinello, M; Chassaing, T;
 Hutter, J. COMPUTER PHYSICS COMMUNICATIONS, 167 (2), 103-128 (2005). 
 QUICKSTEP: Fast and accurate density functional calculations using a
 mixed Gaussian and plane waves approach.
 https://doi.org/10.1016/j.cpc.2004.12.014

 Frigo, M; Johnson, SG. 
 PROCEEDINGS OF THE IEEE, 93 (2), 216-231 (2005). 
 The design and implementation of FFTW3.
 https://doi.org/10.1109/JPROC.2004.840301

 VandeVondele, J; Hutter, J. 
 JOURNAL OF CHEMICAL PHYSICS, 118 (10), 4365-4369 (2003). 
 An efficient orbital transformation method for electronic structure
 calculations.
 https://doi.org/10.1063/1.1543154

 Hartwigsen, C; Goedecker, S; Hutter, J. 
 PHYSICAL REVIEW B, 58 (7), 3641-3662 (1998). 
 Relativistic separable dual-space Gaussian pseudopotentials from H to Rn.
 https://doi.org/10.1103/PhysRevB.58.3641

 Lippert, G; Hutter, J; Parrinello, M. 
 MOLECULAR PHYSICS, 92 (3), 477-487 (1997). 
 A hybrid Gaussian and plane wave density functional scheme.
 https://doi.org/10.1080/002689797170220

 Goedecker, S; Teter, M; Hutter, J. 
 PHYSICAL REVIEW B, 54 (3), 1703-1710 (1996). 
 Separable dual-space Gaussian pseudopotentials.
 https://doi.org/10.1103/PhysRevB.54.1703

 BECKE, AD. PHYSICAL REVIEW A, 38 (6), 3098-3100 (1988). 
 DENSITY-FUNCTIONAL EXCHANGE-ENERGY APPROXIMATION WITH CORRECT
 ASYMPTOTIC-BEHAVIOR.
 https://doi.org/10.1103/PhysRevA.38.3098

 LEE, CT; YANG, WT; PARR, RG. 
 PHYSICAL REVIEW B, 37 (2), 785-789 (1988). 
 DEVELOPMENT OF THE COLLE-SALVETTI CORRELATION-ENERGY FORMULA INTO A
 FUNCTIONAL OF THE ELECTRON-DENSITY.
 https://doi.org/10.1103/PhysRevB.37.785


 -------------------------------------------------------------------------------
 -                                                                             -
 -                                T I M I N G                                  -
 -                                                                             -
 -------------------------------------------------------------------------------
 SUBROUTINE                       CALLS  ASD         SELF TIME        TOTAL TIME
                                MAXIMUM       AVERAGE  MAXIMUM  AVERAGE  MAXIMUM
 CP2K                                 1  1.0    0.007    0.007   14.639   14.639
 qs_forces                            1  2.0    0.000    0.000   14.576   14.576
 qs_energies                          1  3.0    0.000    0.000   14.030   14.030
 scf_env_do_scf                       1  4.0    0.000    0.000   13.967   13.967
 rebuild_ks_matrix                   25  6.9    0.000    0.000   13.532   13.532
 qs_ks_build_kohn_sham_matrix        25  7.9    0.003    0.003   13.531   13.531
 scf_env_do_scf_inner_loop           24  5.0    0.002    0.002   13.397   13.397
 qs_ks_update_qs_env                 25  6.0    0.000    0.000   12.987   12.987
 xc_vxc_pw_create                    75  9.9    0.317    0.317   10.622   10.622
 low_spin_roks                       25  8.9    0.031    0.031    9.379    9.379
 pw_transfer                       2476 11.9    0.121    0.121    7.665    7.665
 fft_wrap_pw1pw2                   2426 12.9    0.016    0.016    7.524    7.524
 fft_wrap_pw1pw2_170               1526 14.2    0.452    0.452    7.202    7.202
 xc_rho_set_and_dset_create          75 10.9    0.663    0.663    6.561    6.561
 xc_pw_derive                       900 11.9    0.005    0.005    5.396    5.396
 fft3d_s                           2427 14.9    4.082    4.082    4.093    4.093
 xc_pw_divergence                   150 10.9    0.002    0.002    3.535    3.535
 qs_vxc_create                       25  8.9    0.000    0.000    3.483    3.483
 xc_functional_eval                 150 11.9    0.001    0.001    2.940    2.940
 lyp_lsd_eval                        75 12.9    2.364    2.364    2.364    2.364
 calculate_rho_elec                 150  8.9    0.037    0.037    2.092    2.092
 density_rs2pw                      150  9.9    0.003    0.003    1.800    1.800
 pw_scatter_s                      1225 15.1    1.714    1.714    1.714    1.714
 pw_gather_s                       1201 14.8    1.228    1.228    1.228    1.228
 integrate_v_rspace                 150  9.9    0.003    0.003    1.163    1.163
 potential_pw2rs                    150 10.9    0.005    0.005    0.990    0.990
 pw_derive                          900 12.9    0.825    0.825    0.825    0.825
 qs_rho_update_rho_low               25  6.0    0.000    0.000    0.731    0.731
 xb88_lsd_eval                       75 12.9    0.575    0.575    0.575    0.575
 init_scf_loop                        1  5.0    0.000    0.000    0.570    0.570
 qs_ks_update_qs_env_forces           1  3.0    0.000    0.000    0.546    0.546
 pw_copy                           1426 12.1    0.452    0.452    0.452    0.452
 sum_up_and_integrate                25  8.9    0.032    0.032    0.420    0.420
 pw_axpy                           1701 11.2    0.412    0.412    0.412    0.412
 dbcsr_multiply_generic            1021 10.7    0.019    0.019    0.302    0.302
 -------------------------------------------------------------------------------

 The number of warnings for this run is : 0
 
 -------------------------------------------------------------------------------
  **** **** ******  **  PROGRAM ENDED AT                 2022-12-12 18:01:45.670
 ***** ** ***  *** **   PROGRAM RAN ON                           xissand-MS-7A34
 **    ****   ******    PROGRAM RAN BY                                         j
 ***** **    ** ** **   PROGRAM PROCESS ID                                 96818
  **** **  *******  **  PROGRAM STOPPED IN     /home/j/Study/QMComp/HW/3_cp2k/T1
