 DBCSR| CPU Multiplication driver                                           XSMM
 DBCSR| Multrec recursion limit                                              512
 DBCSR| Multiplication stack size                                           1000
 DBCSR| Maximum elements for images                                    UNLIMITED
 DBCSR| Multiplicative factor virtual images                                   1
 DBCSR| Use multiplication densification                                       T
 DBCSR| Multiplication size stacks                                             3
 DBCSR| Use memory pool for CPU allocation                                     F
 DBCSR| Number of 3D layers                                               SINGLE
 DBCSR| Use MPI memory allocation                                              F
 DBCSR| Use RMA algorithm                                                      F
 DBCSR| Use Communication thread                                               T
 DBCSR| Communication thread load                                             87
 DBCSR| MPI: My node id                                                        0
 DBCSR| MPI: Number of nodes                                                   1
 DBCSR| OMP: Current number of threads                                         1
 DBCSR| OMP: Max number of threads                                             1
 DBCSR| Split modifier for TAS multiplication algorithm                  1.0E+00


  **** **** ******  **  PROGRAM STARTED AT               2022-12-12 18:03:18.660
 ***** ** ***  *** **   PROGRAM STARTED ON                       xissand-MS-7A34
 **    ****   ******    PROGRAM STARTED BY                                     j
 ***** **    ** ** **   PROGRAM PROCESS ID                                 97519
  **** **  *******  **  PROGRAM STARTED IN     /home/j/Study/QMComp/HW/3_cp2k/T1

 CP2K| version string:                 CP2K version 2022.1 (Development Version)
 CP2K| source code revision number:                                  git:a213519
 CP2K| cp2kflags: omp fftw3 libxc elpa parallel mpi3 scalapack cosma xsmm spglib
 CP2K|             sirius libvori libbqb libvdwxc
 CP2K| is freely available from                            https://www.cp2k.org/
 CP2K| Program compiled at                       Tue Nov  8 04:05:17 PM MSK 2022
 CP2K| Program compiled on                                       xissand-MS-7A34
 CP2K| Program compiled for                                                local
 CP2K| Data directory path                          /home/j/Study/cp2k/cp2k/data
 CP2K| Input file name                                                  cp2k.inp

 GLOBAL| Force Environment number                                              1
 GLOBAL| Basis set file name                                           BASIS_SET
 GLOBAL| Potential file name                                      GTH_POTENTIALS
 GLOBAL| MM Potential file name                                     MM_POTENTIAL
 GLOBAL| Coordinate file name                                      __STD_INPUT__
 GLOBAL| Method name                                                        CP2K
 GLOBAL| Project name                                                 H2_08_1600
 GLOBAL| Run type                                                   ENERGY_FORCE
 GLOBAL| FFT library                                                       FFTW3
 GLOBAL| Diagonalization library                                            ELPA
 GLOBAL| DGEMM library                                                      BLAS
 GLOBAL| Minimum number of eigenvectors for ELPA usage                        16
 GLOBAL| Orthonormality check for eigenvectors                          DISABLED
 GLOBAL| Matrix multiplication library                                     COSMA
 GLOBAL| All-to-all communication in single precision                          F
 GLOBAL| FFTs using library dependent lengths                                  F
 GLOBAL| Grid backend                                                       AUTO
 GLOBAL| Global print level                                                  LOW
 GLOBAL| MPI I/O enabled                                                       T
 GLOBAL| Total number of message passing processes                             1
 GLOBAL| Number of threads for this process                                    1
 GLOBAL| This output is from process                                           0
 GLOBAL| Stack size for threads created by OpenMP (OMP_STACKSIZE)        default
 GLOBAL| CPU model name                    AMD Ryzen 5 1500X Quad-Core Processor
 GLOBAL| CPUID                                                              1002
 GLOBAL| Compiled for CPUID                                                    0

 *** HINT in environment.F:884 :: The compiler target flags (generic) used ***
 *** to build this binary cannot exploit all extensions of this CPU model  ***
 *** (x86_avx2). Consider compiler target flags as part of FCFLAGS and     ***
 *** CFLAGS (ARCH file).                                                   ***


 MEMORY| system memory details [Kb]
 MEMORY|                        rank 0           min           max       average
 MEMORY| MemTotal             16331996      16331996      16331996      16331996
 MEMORY| MemFree               6113912       6113912       6113912       6113912
 MEMORY| Buffers               1150324       1150324       1150324       1150324
 MEMORY| Cached                4228588       4228588       4228588       4228588
 MEMORY| Slab                   800596        800596        800596        800596
 MEMORY| SReclaimable           627220        627220        627220        627220
 MEMORY| MemLikelyFree        12120044      12120044      12120044      12120044


 GENERATE|  Preliminary Number of Bonds generated:                             0
 GENERATE|  Achieved consistency in connectivity generation.

 *******************************************************************************
 *******************************************************************************
 **                                                                           **
 **     #####                         ##              ##                      **
 **    ##   ##            ##          ##              ##                      **
 **   ##     ##                       ##            ######                    **
 **   ##     ##  ##   ##  ##   #####  ##  ##   ####   ##    #####    #####    **
 **   ##     ##  ##   ##  ##  ##      ## ##   ##      ##   ##   ##  ##   ##   **
 **   ##  ## ##  ##   ##  ##  ##      ####     ###    ##   ######   ######    **
 **    ##  ###   ##   ##  ##  ##      ## ##      ##   ##   ##       ##        **
 **     #######   #####   ##   #####  ##  ##  ####    ##    #####   ##        **
 **           ##                                                    ##        **
 **                                                                           **
 **                                                ... make the atoms dance   **
 **                                                                           **
 **            Copyright (C) by CP2K developers group (2000-2022)             **
 **                      J. Chem. Phys. 152, 194103 (2020)                    **
 **                                                                           **
 *******************************************************************************
 
  **************************************
  restricted calculation cutting corners
  experimental feature, check code      
  **************************************


 TOTAL NUMBERS AND MAXIMUM NUMBERS

  Total number of            - Atomic kinds:                                   1
                             - Atoms:                                          2
                             - Shell sets:                                     4
                             - Shells:                                         6
                             - Primitive Cartesian functions:                 10
                             - Cartesian basis functions:                     10
                             - Spherical basis functions:                     10

  Maximum angular momentum of- Orbital basis functions:                        1
                             - Local part of the GTH pseudopotential:          2


 SCF PARAMETERS         Density guess:                                    ATOMIC
                        --------------------------------------------------------
                        max_scf:                                             400
                        max_scf_history:                                       0
                        max_diis:                                              4
                        --------------------------------------------------------
                        eps_scf:                                        1.00E-06
                        eps_scf_history:                                0.00E+00
                        eps_diis:                                       1.00E-01
                        eps_eigval:                                     1.00E-05
                        --------------------------------------------------------
                        level_shift [a.u.]:                             0.000000
                        --------------------------------------------------------
                        No outer SCF

 Spin 1

 Number of electrons:                                                          2
 Number of occupied orbitals:                                                  2
 Number of molecular orbitals:                                                 2

 Spin 2

 Number of electrons:                                                          0
 Number of occupied orbitals:                                                  0
 Number of molecular orbitals:                                                 0

 Number of orbital functions:                                                 10
 Number of independent orbital functions:                                     10

 Extrapolation method: initial_guess


 SCF WAVEFUNCTION OPTIMIZATION

  ----------------------------------- OT ---------------------------------------
  Allowing for rotations 
  Minimizer      : DIIS                : direct inversion
                                         in the iterative subspace
                                         using   7 DIIS vectors
                                         safer DIIS on
  Preconditioner : FULL_SINGLE         : diagonalization based
  Precond_solver : DEFAULT
  stepsize       :    0.15000000                  energy_gap     :    0.20000000
  eps_taylor     :   0.10000E-15                  max_taylor     :             4
  ----------------------------------- OT ---------------------------------------

  Step     Update method      Time    Convergence         Total energy    Change
  ------------------------------------------------------------------------------
     1 OT DIIS     0.15E+00    0.6     0.25109967        -0.3907116903 -3.91E-01
     2 OT DIIS     0.15E+00    0.6     0.15025744        -0.5325047091 -1.42E-01
     3 OT DIIS     0.15E+00    0.6     0.08351213        -0.5997724685 -6.73E-02
     4 OT DIIS     0.15E+00    0.6     0.02251261        -0.6281494762 -2.84E-02
     5 OT DIIS     0.15E+00    0.6     0.02559012        -0.6281351098  1.44E-05
     6 OT DIIS     0.15E+00    0.6     0.00885477        -0.6298252664 -1.69E-03
     7 OT DIIS     0.15E+00    0.6     0.02225871        -0.6294363502  3.89E-04
     8 OT DIIS     0.15E+00    0.6     0.02183815        -0.6295546564 -1.18E-04
     9 OT SD       0.15E+00    0.6     0.01106706        -0.6305471102 -9.92E-04
    10 OT SD       0.15E+00    0.6     0.00804503        -0.6308314633 -2.84E-04
    11 OT SD       0.15E+00    0.6     0.00749742        -0.6310157575 -1.84E-04
    12 OT SD       0.15E+00    0.6     0.00743156        -0.6311830404 -1.67E-04
    13 OT SD       0.15E+00    0.6     0.00748514        -0.6313491351 -1.66E-04
    14 OT SD       0.15E+00    0.6     0.00757410        -0.6315181409 -1.69E-04
    15 OT SD       0.15E+00    0.6     0.00767713        -0.6316914215 -1.73E-04
    16 OT SD       0.15E+00    0.6     0.00778774        -0.6318695371 -1.78E-04
    17 OT SD       0.15E+00    0.6     0.00790037        -0.6320527853 -1.83E-04
    18 OT SD       0.15E+00    0.6     0.00801583        -0.6322414083 -1.89E-04
    19 OT SD       0.15E+00    0.6     0.00813280        -0.6324355875 -1.94E-04
    20 OT SD       0.15E+00    0.6     0.00825501        -0.6326354814 -2.00E-04
    21 OT SD       0.15E+00    0.6     0.00836863        -0.6328413175 -2.06E-04
    22 OT SD       0.15E+00    0.6     0.00848849        -0.6330528989 -2.12E-04
    23 OT SD       0.15E+00    0.6     0.00861609        -0.6332706404 -2.18E-04
    24 OT SD       0.15E+00    0.6     0.00874094        -0.6334949584 -2.24E-04
    25 OT SD       0.15E+00    0.6     0.00886443        -0.6337257352 -2.31E-04
    26 OT SD       0.15E+00    0.6     0.00900267        -0.6339631405 -2.37E-04
    27 OT SD       0.15E+00    0.6     0.00913135        -0.6342080103 -2.45E-04
    28 OT SD       0.15E+00    0.6     0.00927838        -0.6344603476 -2.52E-04
    29 OT SD       0.15E+00    0.6     0.00943082        -0.6347206637 -2.60E-04
    30 OT SD       0.15E+00    0.6     0.01001443        -0.6349919454 -2.71E-04
    31 OT SD       0.15E+00    0.6     0.01057430        -0.6353023994 -3.10E-04
    32 OT SD       0.15E+00    0.6     0.01086133        -0.6356426536 -3.40E-04
    33 OT SD       0.15E+00    0.6     0.01105042        -0.6359995127 -3.57E-04
    34 OT SD       0.15E+00    0.6     0.01124601        -0.6363690107 -3.69E-04
    35 OT SD       0.15E+00    0.6     0.01144509        -0.6367520853 -3.83E-04
    36 OT SD       0.15E+00    0.6     0.01160600        -0.6371478238 -3.96E-04
    37 OT SD       0.15E+00    0.6     0.01176179        -0.6375546226 -4.07E-04
    38 OT SD       0.15E+00    0.6     0.01192207        -0.6379724345 -4.18E-04
    39 OT SD       0.15E+00    0.6     0.01209145        -0.6384018146 -4.29E-04
    40 OT SD       0.15E+00    0.6     0.01224861        -0.6388434342 -4.42E-04
    41 OT SD       0.15E+00    0.6     0.01237863        -0.6392959179 -4.52E-04
    42 OT SD       0.15E+00    0.6     0.01249975        -0.6397578370 -4.62E-04
    43 OT SD       0.15E+00    0.6     0.01261463        -0.6402287347 -4.71E-04
    44 OT SD       0.15E+00    0.6     0.01274252        -0.6407085504 -4.80E-04
    45 OT SD       0.15E+00    0.6     0.01287189        -0.6411980309 -4.89E-04
    46 OT SD       0.15E+00    0.6     0.01299779        -0.6416976609 -5.00E-04
    47 OT SD       0.15E+00    0.6     0.01342810        -0.6422094393 -5.12E-04
    48 OT SD       0.15E+00    0.6     0.01385915        -0.6427598559 -5.50E-04
    49 OT SD       0.15E+00    0.6     0.01400125        -0.6433394742 -5.80E-04
    50 OT DIIS     0.15E+00    0.7     0.01411934        -0.6439304638 -5.91E-04
    51 OT SD       0.15E+00    0.7     0.02676211        -0.6435572831  3.73E-04
    52 OT SD       0.15E+00    0.8     0.01768182        -0.6452481753 -1.69E-03
    53 OT SD       0.15E+00    0.7     0.01524259        -0.6461007977 -8.53E-04
    54 OT SD       0.15E+00    0.6     0.01456802        -0.6467785143 -6.78E-04
    55 OT SD       0.15E+00    0.6     0.01427312        -0.6474079412 -6.29E-04
    56 OT DIIS     0.15E+00    0.6     0.01406998        -0.6480144190 -6.06E-04
    57 OT SD       0.15E+00    0.6     0.01960084        -0.6580209824 -1.00E-02
    58 OT DIIS     0.15E+00    0.6     0.00978299        -0.6587693455 -7.48E-04
    59 OT DIIS     0.15E+00    0.7     0.01336497        -0.6588184546 -4.91E-05
    60 OT DIIS     0.15E+00    0.7     0.02691923        -0.6574036615  1.41E-03
    61 OT DIIS     0.15E+00    0.6     0.00419266        -0.6595268511 -2.12E-03
    62 OT DIIS     0.15E+00    0.6     0.00203433        -0.6595703023 -4.35E-05
    63 OT DIIS     0.15E+00    0.7     0.00119121        -0.6595715502 -1.25E-06
    64 OT DIIS     0.15E+00    0.7     0.00031554        -0.6595817812 -1.02E-05
    65 OT DIIS     0.15E+00    0.7     0.00027974        -0.6595826024 -8.21E-07
    66 OT DIIS     0.15E+00    0.6     0.00010064        -0.6595833850 -7.83E-07
    67 OT DIIS     0.15E+00    0.6     0.00003239        -0.6595834561 -7.12E-08
    68 OT DIIS     0.15E+00    0.6     0.00001032        -0.6595834616 -5.46E-09
    69 OT DIIS     0.15E+00    0.6     0.00000246        -0.6595834620 -3.94E-10
    70 OT DIIS     0.15E+00    0.6     0.00000216        -0.6595834620 -1.02E-11
    71 OT DIIS     0.15E+00    0.6     0.00000074        -0.6595834620 -1.97E-11

  *** SCF run converged in    71 steps ***


  Electronic density on regular grids:         -2.0000000007       -0.0000000007
  Core density on regular grids:                1.9999999999       -0.0000000001
  Total charge density on r-space grids:       -0.0000000008
  Total charge density g-space grids:          -0.0000000008

  Overlap energy of the core charge distribution:               0.00001145423016
  Self energy of the core charge distribution:                 -2.82094791773878
  Core Hamiltonian energy:                                      1.23712725099003
  Hartree energy:                                               1.60093466275143
  Exchange-correlation energy:                                 -0.67670891226541

  Total energy:                                                -0.65958346203258

  Integrated absolute spin density  :                               2.0000000007
  Ideal and single determinant S**2 :                    2.000000       2.000000

 ENERGY| Total FORCE_EVAL ( QS ) energy [a.u.]:               -0.659583462033705

 -------------------------------------------------------------------------------
 -                                                                             -
 -                                DBCSR STATISTICS                             -
 -                                                                             -
 -------------------------------------------------------------------------------
 COUNTER                                    TOTAL       BLAS       SMM       ACC
 flops     2 x     2 x     2                19232      29.6%     70.4%      0.0%
 flops     2 x     2 x    10                28400       0.0%    100.0%      0.0%
 flops    10 x     2 x    10                28800       0.0%    100.0%      0.0%
 flops    10 x     2 x     2                34000       0.0%    100.0%      0.0%
 flops     5 x     5 x     2               108300       0.0%    100.0%      0.0%
 flops     5 x     2 x     5               174400       0.0%    100.0%      0.0%
 flops inhomo. stacks                           0       0.0%      0.0%      0.0%
 flops total                       393.132000E+03       1.4%     98.6%      0.0%
 flops max/rank                    393.132000E+03       1.4%     98.6%      0.0%
 matmuls inhomo. stacks                         0       0.0%      0.0%      0.0%
 matmuls total                               4881       7.3%     92.7%      0.0%
 number of processed stacks                  2851      12.5%     87.5%      0.0%
 average stack size                                     1.0       1.8       0.0
 marketing flops                   429.312000E+03
 -------------------------------------------------------------------------------
 # multiplications                           2995
 max memory usage/rank             273.358848E+06
 # max total images/rank                        1
 # max 3D layers                                1
 # MPI messages exchanged                       0
 -------------------------------------------------------------------------------
 -                                                                             -
 -                      DBCSR MESSAGE PASSING PERFORMANCE                      -
 -                                                                             -
 -------------------------------------------------------------------------------
 ROUTINE             CALLS      AVE VOLUME [Bytes]
 MP_Bcast                7                     12.
 MP_Allreduce        15728                      8.
 MP_Alltoall         14484                     33.
 MP_ISend            11548                     34.
 MP_IRecv            11548                     34.
 -------------------------------------------------------------------------------

 -------------------------------------------------------------------------------
 -                                                                             -
 -                                DBM STATISTICS                               -
 -                                                                             -
 -------------------------------------------------------------------------------
    M  x    N  x    K                                          COUNT     PERCENT
 -------------------------------------------------------------------------------

 -------------------------------------------------------------------------------
 -                                                                             -
 -                                GRID STATISTICS                              -
 -                                                                             -
 -------------------------------------------------------------------------------
 LP    KERNEL             BACKEND                              COUNT     PERCENT
 0     collocate ortho    REF                                  75600      36.31%
 0     integrate ortho    REF                                  74550      35.80%
 1     integrate ortho    REF                                  27462      13.19%
 1     collocate ortho    REF                                  26784      12.86%
 2     integrate ortho    REF                                   2076       1.00%
 2     collocate ortho    REF                                   1728       0.83%
 3     integrate ortho    REF                                     24       0.01%
 0     collocate general  REF                                      2       0.00%
 1     integrate general  REF                                      2       0.00%
 -------------------------------------------------------------------------------

 MEMORY| Estimated peak process memory [MiB]                                 261

 -------------------------------------------------------------------------------
 -                                                                             -
 -                         MESSAGE PASSING PERFORMANCE                         -
 -                                                                             -
 -------------------------------------------------------------------------------

 ROUTINE             CALLS      AVE VOLUME [Bytes]
 MP_Group                4
 MP_Bcast              426                   1435.
 MP_Allreduce         2032                      8.
 MP_Sync                77
 -------------------------------------------------------------------------------


 -------------------------------------------------------------------------------
 -                                                                             -
 -                           R E F E R E N C E S                               -
 -                                                                             -
 -------------------------------------------------------------------------------
 
 CP2K version 2022.1 (Development Version), the CP2K developers group (2022).
 CP2K is freely available from https://www.cp2k.org/ .

 Kuehne,Thomas D.; Iannuzzi,Marcella; Del Ben,Mauro;
 Rybkin,Vladimir V.; Seewald,Patrick; Stein,Frederick; Laino,Teodoro;
 Khaliullin,Rustam Z.; Schuett,Ole; Schiffmann,Florian; Golze,Dorothea;
 Wilhelm,Jan; Chulkov,Sergey; Bani-Hashemian,Mohammad Hossein;
 Weber,Valery; Borstnik,Urban; Taillefumier,Mathieu;
 Jakobovits,Alice Shoshana; Lazzaro,Alfio; Pabst,Hans; Mueller,Tiziano;
 Schade,Robert; Guidon,Manuel; Andermatt,Samuel; Holmberg,Nico;
 Schenter,Gregory K.; Hehn,Anna; Bussy,Augustin; Belleflamme,Fabian;
 Tabacchi,Gloria; Gloess,Andreas; Lass,Michael; Bethune,Iain;
 Mundy,Christopher J.; Plessl,Christian; Watkins,Matt;
 VandeVondele,Joost; Krack,Matthias; Hutter,Juerg. 
 The Journal of Chemical Physics, 152 (19), (2020). 
 CP2K: An electronic structure and molecular dynamics software package -
 Quickstep: Efficient and accurate electronic structure calculations.
 https://doi.org/10.1063/5.0007045

 Schuett, Ole; Messmer, Peter; Hutter, Juerg; VandeVondele, Joost. 
 Electronic Structure Calculations on Graphics Processing Units, John
 Wiley & Sons, Ltd, 173-190 (2016). 
 GPU-Accelerated Sparse Matrix-Matrix Multiplication for
 Linear Scaling Density Functional Theory.
 https://doi.org/10.1002/9781118670712.ch8

 Heinecke, A; Henry, G; Hutchinson, M; Pabst, H. 
 Proceedings of Intl. Supercomputing Conference, 981-991 (2016). 
 LIBXSMM: Accelerating Small Matrix Multiplications
 by Runtime Code Generation.
 https://doi.org/10.1109/SC.2016.83

 Borstnik, U; VandeVondele, J; Weber, V; Hutter, J. 
 PARALLEL COMPUTING, 40 (5-6), 47-58 (2014). 
 Sparse matrix multiplication: The distributed block-compressed sparse
 row library.
 https://doi.org/10.1016/j.parco.2014.03.012

 Hutter, J; Iannuzzi, M; Schiffmann, F; VandeVondele, J. 
 WIREs Comput Mol Sci., 4 (1), 15-25 (2014). 
 CP2K: atomistic simulations of condensed matter systems.
 https://doi.org/10.1002/wcms.1159

 Marek, A; Blum, V; Johanni, R; Havu, V; Lang, B; Auckenthaler, T;
 Heinecke, A; Bungartz, H; Lederer, H. 
 Journal of Physics: Condensed Matter, 26 (21), (2014). 
 The ELPA library: scalable parallel eigenvalue solutions for
 electronic structure
 theory and computational science.
 https://doi.org/10.1088/0953-8984/26/21/213201

 Krack, M. 
 THEORETICAL CHEMISTRY ACCOUNTS, 114 (1-3), 145-152 (2005). 
 Pseudopotentials for H to Kr optimized for gradient-corrected
 exchange-correlation functionals.
 https://doi.org/10.1007/s00214-005-0655-y

 VandeVondele, J; Krack, M; Mohamed, F; Parrinello, M; Chassaing, T;
 Hutter, J. COMPUTER PHYSICS COMMUNICATIONS, 167 (2), 103-128 (2005). 
 QUICKSTEP: Fast and accurate density functional calculations using a
 mixed Gaussian and plane waves approach.
 https://doi.org/10.1016/j.cpc.2004.12.014

 Frigo, M; Johnson, SG. 
 PROCEEDINGS OF THE IEEE, 93 (2), 216-231 (2005). 
 The design and implementation of FFTW3.
 https://doi.org/10.1109/JPROC.2004.840301

 VandeVondele, J; Hutter, J. 
 JOURNAL OF CHEMICAL PHYSICS, 118 (10), 4365-4369 (2003). 
 An efficient orbital transformation method for electronic structure
 calculations.
 https://doi.org/10.1063/1.1543154

 Hartwigsen, C; Goedecker, S; Hutter, J. 
 PHYSICAL REVIEW B, 58 (7), 3641-3662 (1998). 
 Relativistic separable dual-space Gaussian pseudopotentials from H to Rn.
 https://doi.org/10.1103/PhysRevB.58.3641

 Lippert, G; Hutter, J; Parrinello, M. 
 MOLECULAR PHYSICS, 92 (3), 477-487 (1997). 
 A hybrid Gaussian and plane wave density functional scheme.
 https://doi.org/10.1080/002689797170220

 Goedecker, S; Teter, M; Hutter, J. 
 PHYSICAL REVIEW B, 54 (3), 1703-1710 (1996). 
 Separable dual-space Gaussian pseudopotentials.
 https://doi.org/10.1103/PhysRevB.54.1703

 BECKE, AD. PHYSICAL REVIEW A, 38 (6), 3098-3100 (1988). 
 DENSITY-FUNCTIONAL EXCHANGE-ENERGY APPROXIMATION WITH CORRECT
 ASYMPTOTIC-BEHAVIOR.
 https://doi.org/10.1103/PhysRevA.38.3098

 LEE, CT; YANG, WT; PARR, RG. 
 PHYSICAL REVIEW B, 37 (2), 785-789 (1988). 
 DEVELOPMENT OF THE COLLE-SALVETTI CORRELATION-ENERGY FORMULA INTO A
 FUNCTIONAL OF THE ELECTRON-DENSITY.
 https://doi.org/10.1103/PhysRevB.37.785


 -------------------------------------------------------------------------------
 -                                                                             -
 -                                T I M I N G                                  -
 -                                                                             -
 -------------------------------------------------------------------------------
 SUBROUTINE                       CALLS  ASD         SELF TIME        TOTAL TIME
                                MAXIMUM       AVERAGE  MAXIMUM  AVERAGE  MAXIMUM
 CP2K                                 1  1.0    0.008    0.008   43.684   43.684
 qs_forces                            1  2.0    0.000    0.000   43.623   43.623
 qs_energies                          1  3.0    0.000    0.000   43.054   43.054
 scf_env_do_scf                       1  4.0    0.000    0.000   42.989   42.989
 scf_env_do_scf_inner_loop           71  5.0    0.005    0.005   42.409   42.409
 rebuild_ks_matrix                   72  7.0    0.000    0.000   40.575   40.575
 qs_ks_build_kohn_sham_matrix        72  8.0    0.009    0.009   40.575   40.575
 qs_ks_update_qs_env                 72  6.0    0.001    0.001   40.008   40.008
 xc_vxc_pw_create                   216 10.0    0.958    0.958   31.962   31.962
 low_spin_roks                       72  9.0    0.089    0.089   28.069   28.069
 pw_transfer                       7129 12.0    0.358    0.358   23.268   23.268
 fft_wrap_pw1pw2                   6985 13.0    0.046    0.046   22.851   22.851
 fft_wrap_pw1pw2_170               4393 14.3    1.342    1.342   22.088   22.088
 xc_rho_set_and_dset_create         216 11.0    1.952    1.952   19.623   19.623
 xc_pw_derive                      2592 12.0    0.014    0.014   16.455   16.455
 fft3d_s                           6986 15.0   12.201   12.201   12.221   12.221
 xc_pw_divergence                   432 11.0    0.006    0.006   10.765   10.765
 qs_vxc_create                       72  9.0    0.001    0.001   10.516   10.516
 xc_functional_eval                 432 12.0    0.004    0.004    8.737    8.737
 lyp_lsd_eval                       216 13.0    7.045    7.045    7.045    7.045
 calculate_rho_elec                 432  9.0    0.106    0.106    6.209    6.209
 density_rs2pw                      432 10.0    0.011    0.011    5.348    5.348
 pw_scatter_s                      3528 15.1    5.154    5.154    5.154    5.154
 pw_gather_s                       3457 14.8    4.028    4.028    4.028    4.028
 integrate_v_rspace                 432 10.0    0.010    0.010    3.431    3.431
 potential_pw2rs                    432 11.0    0.016    0.016    2.918    2.918
 pw_derive                         2592 13.0    2.404    2.404    2.404    2.404
 qs_rho_update_rho_low               72  6.0    0.000    0.000    2.174    2.174
 xb88_lsd_eval                      216 13.0    1.688    1.688    1.688    1.688
 pw_copy                           4105 12.2    1.317    1.317    1.317    1.317
 sum_up_and_integrate                72  9.0    0.096    0.096    1.241    1.241
 pw_axpy                           4897 11.3    1.188    1.188    1.188    1.188
 dbcsr_multiply_generic            2995 10.7    0.057    0.057    0.875    0.875
 -------------------------------------------------------------------------------

 The number of warnings for this run is : 0
 
 -------------------------------------------------------------------------------
  **** **** ******  **  PROGRAM ENDED AT                 2022-12-12 18:04:02.881
 ***** ** ***  *** **   PROGRAM RAN ON                           xissand-MS-7A34
 **    ****   ******    PROGRAM RAN BY                                         j
 ***** **    ** ** **   PROGRAM PROCESS ID                                 97519
  **** **  *******  **  PROGRAM STOPPED IN     /home/j/Study/QMComp/HW/3_cp2k/T1
