 DBCSR| CPU Multiplication driver                                           XSMM
 DBCSR| Multrec recursion limit                                              512
 DBCSR| Multiplication stack size                                           1000
 DBCSR| Maximum elements for images                                    UNLIMITED
 DBCSR| Multiplicative factor virtual images                                   1
 DBCSR| Use multiplication densification                                       T
 DBCSR| Multiplication size stacks                                             3
 DBCSR| Use memory pool for CPU allocation                                     F
 DBCSR| Number of 3D layers                                               SINGLE
 DBCSR| Use MPI memory allocation                                              F
 DBCSR| Use RMA algorithm                                                      F
 DBCSR| Use Communication thread                                               T
 DBCSR| Communication thread load                                             87
 DBCSR| MPI: My node id                                                        0
 DBCSR| MPI: Number of nodes                                                   1
 DBCSR| OMP: Current number of threads                                         1
 DBCSR| OMP: Max number of threads                                             1
 DBCSR| Split modifier for TAS multiplication algorithm                  1.0E+00


  **** **** ******  **  PROGRAM STARTED AT               2022-12-12 18:10:30.909
 ***** ** ***  *** **   PROGRAM STARTED ON                       xissand-MS-7A34
 **    ****   ******    PROGRAM STARTED BY                                     j
 ***** **    ** ** **   PROGRAM PROCESS ID                                 99844
  **** **  *******  **  PROGRAM STARTED IN     /home/j/Study/QMComp/HW/3_cp2k/T1

 CP2K| version string:                 CP2K version 2022.1 (Development Version)
 CP2K| source code revision number:                                  git:a213519
 CP2K| cp2kflags: omp fftw3 libxc elpa parallel mpi3 scalapack cosma xsmm spglib
 CP2K|             sirius libvori libbqb libvdwxc
 CP2K| is freely available from                            https://www.cp2k.org/
 CP2K| Program compiled at                       Tue Nov  8 04:05:17 PM MSK 2022
 CP2K| Program compiled on                                       xissand-MS-7A34
 CP2K| Program compiled for                                                local
 CP2K| Data directory path                          /home/j/Study/cp2k/cp2k/data
 CP2K| Input file name                                                  cp2k.inp

 GLOBAL| Force Environment number                                              1
 GLOBAL| Basis set file name                                           BASIS_SET
 GLOBAL| Potential file name                                      GTH_POTENTIALS
 GLOBAL| MM Potential file name                                     MM_POTENTIAL
 GLOBAL| Coordinate file name                                      __STD_INPUT__
 GLOBAL| Method name                                                        CP2K
 GLOBAL| Project name                                                 H2_08_1600
 GLOBAL| Run type                                                   ENERGY_FORCE
 GLOBAL| FFT library                                                       FFTW3
 GLOBAL| Diagonalization library                                            ELPA
 GLOBAL| DGEMM library                                                      BLAS
 GLOBAL| Minimum number of eigenvectors for ELPA usage                        16
 GLOBAL| Orthonormality check for eigenvectors                          DISABLED
 GLOBAL| Matrix multiplication library                                     COSMA
 GLOBAL| All-to-all communication in single precision                          F
 GLOBAL| FFTs using library dependent lengths                                  F
 GLOBAL| Grid backend                                                       AUTO
 GLOBAL| Global print level                                                  LOW
 GLOBAL| MPI I/O enabled                                                       T
 GLOBAL| Total number of message passing processes                             1
 GLOBAL| Number of threads for this process                                    1
 GLOBAL| This output is from process                                           0
 GLOBAL| Stack size for threads created by OpenMP (OMP_STACKSIZE)        default
 GLOBAL| CPU model name                    AMD Ryzen 5 1500X Quad-Core Processor
 GLOBAL| CPUID                                                              1002
 GLOBAL| Compiled for CPUID                                                    0

 *** HINT in environment.F:884 :: The compiler target flags (generic) used ***
 *** to build this binary cannot exploit all extensions of this CPU model  ***
 *** (x86_avx2). Consider compiler target flags as part of FCFLAGS and     ***
 *** CFLAGS (ARCH file).                                                   ***


 MEMORY| system memory details [Kb]
 MEMORY|                        rank 0           min           max       average
 MEMORY| MemTotal             16331996      16331996      16331996      16331996
 MEMORY| MemFree               5948236       5948236       5948236       5948236
 MEMORY| Buffers               1153748       1153748       1153748       1153748
 MEMORY| Cached                4233096       4233096       4233096       4233096
 MEMORY| Slab                   801472        801472        801472        801472
 MEMORY| SReclaimable           628264        628264        628264        628264
 MEMORY| MemLikelyFree        11963344      11963344      11963344      11963344


 GENERATE|  Preliminary Number of Bonds generated:                             0
 GENERATE|  Achieved consistency in connectivity generation.

 *******************************************************************************
 *******************************************************************************
 **                                                                           **
 **     #####                         ##              ##                      **
 **    ##   ##            ##          ##              ##                      **
 **   ##     ##                       ##            ######                    **
 **   ##     ##  ##   ##  ##   #####  ##  ##   ####   ##    #####    #####    **
 **   ##     ##  ##   ##  ##  ##      ## ##   ##      ##   ##   ##  ##   ##   **
 **   ##  ## ##  ##   ##  ##  ##      ####     ###    ##   ######   ######    **
 **    ##  ###   ##   ##  ##  ##      ## ##      ##   ##   ##       ##        **
 **     #######   #####   ##   #####  ##  ##  ####    ##    #####   ##        **
 **           ##                                                    ##        **
 **                                                                           **
 **                                                ... make the atoms dance   **
 **                                                                           **
 **            Copyright (C) by CP2K developers group (2000-2022)             **
 **                      J. Chem. Phys. 152, 194103 (2020)                    **
 **                                                                           **
 *******************************************************************************
 
  **************************************
  restricted calculation cutting corners
  experimental feature, check code      
  **************************************


 TOTAL NUMBERS AND MAXIMUM NUMBERS

  Total number of            - Atomic kinds:                                   1
                             - Atoms:                                          2
                             - Shell sets:                                     4
                             - Shells:                                         6
                             - Primitive Cartesian functions:                 10
                             - Cartesian basis functions:                     10
                             - Spherical basis functions:                     10

  Maximum angular momentum of- Orbital basis functions:                        1
                             - Local part of the GTH pseudopotential:          2


 SCF PARAMETERS         Density guess:                                    ATOMIC
                        --------------------------------------------------------
                        max_scf:                                             400
                        max_scf_history:                                       0
                        max_diis:                                              4
                        --------------------------------------------------------
                        eps_scf:                                        1.00E-06
                        eps_scf_history:                                0.00E+00
                        eps_diis:                                       1.00E-01
                        eps_eigval:                                     1.00E-05
                        --------------------------------------------------------
                        level_shift [a.u.]:                             0.000000
                        --------------------------------------------------------
                        No outer SCF

 Spin 1

 Number of electrons:                                                          2
 Number of occupied orbitals:                                                  2
 Number of molecular orbitals:                                                 2

 Spin 2

 Number of electrons:                                                          0
 Number of occupied orbitals:                                                  0
 Number of molecular orbitals:                                                 0

 Number of orbital functions:                                                 10
 Number of independent orbital functions:                                     10

 Extrapolation method: initial_guess


 SCF WAVEFUNCTION OPTIMIZATION

  ----------------------------------- OT ---------------------------------------
  Allowing for rotations 
  Minimizer      : DIIS                : direct inversion
                                         in the iterative subspace
                                         using   7 DIIS vectors
                                         safer DIIS on
  Preconditioner : FULL_SINGLE         : diagonalization based
  Precond_solver : DEFAULT
  stepsize       :    0.15000000                  energy_gap     :    0.20000000
  eps_taylor     :   0.10000E-15                  max_taylor     :             4
  ----------------------------------- OT ---------------------------------------

  Step     Update method      Time    Convergence         Total energy    Change
  ------------------------------------------------------------------------------
     1 OT DIIS     0.15E+00    0.6     0.03762937        -0.8154751493 -8.15E-01
     2 OT DIIS     0.15E+00    0.6     0.02747202        -0.8191448431 -3.67E-03
     3 OT DIIS     0.15E+00    0.5     0.00556367        -0.8233870499 -4.24E-03
     4 OT DIIS     0.15E+00    0.5     0.00123142        -0.8235512935 -1.64E-04
     5 OT DIIS     0.15E+00    0.5     0.00075258        -0.8235582173 -6.92E-06
     6 OT SD       0.15E+00    0.5     0.00051786        -0.8235599200 -1.70E-06
     7 OT DIIS     0.15E+00    0.5     0.00037834        -0.8235606138 -6.94E-07
     8 OT DIIS     0.15E+00    0.6     0.00010133        -0.8235612863 -6.73E-07
     9 OT DIIS     0.15E+00    0.6     0.00001168        -0.8235613376 -5.13E-08
    10 OT DIIS     0.15E+00    0.5     0.00000039        -0.8235613383 -7.37E-10

  *** SCF run converged in    10 steps ***


  Electronic density on regular grids:         -1.9999999998        0.0000000002
  Core density on regular grids:                1.9999999999       -0.0000000001
  Total charge density on r-space grids:        0.0000000001
  Total charge density g-space grids:           0.0000000001

  Overlap energy of the core charge distribution:               0.00000000000000
  Self energy of the core charge distribution:                 -2.82094791773878
  Core Hamiltonian energy:                                      0.90243683660191
  Hartree energy:                                               1.58870831385071
  Exchange-correlation energy:                                 -0.49375857105217

  Total energy:                                                -0.82356133833833

  Integrated absolute spin density  :                               1.9999999998
  Ideal and single determinant S**2 :                    2.000000       2.000000

 ENERGY| Total FORCE_EVAL ( QS ) energy [a.u.]:               -0.823561338338987

 -------------------------------------------------------------------------------
 -                                                                             -
 -                                DBCSR STATISTICS                             -
 -                                                                             -
 -------------------------------------------------------------------------------
 COUNTER                                    TOTAL       BLAS       SMM       ACC
 flops     2 x     2 x     2                 3584      22.8%     77.2%      0.0%
 flops     2 x     2 x    10                 4000       0.0%    100.0%      0.0%
 flops    10 x     2 x    10                 4400       0.0%    100.0%      0.0%
 flops    10 x     2 x     2                 4720       0.0%    100.0%      0.0%
 flops     5 x     5 x     2                16800       0.0%    100.0%      0.0%
 flops     5 x     2 x     5                28000       0.0%    100.0%      0.0%
 flops inhomo. stacks                           0       0.0%      0.0%      0.0%
 flops total                        61.504000E+03       1.3%     98.7%      0.0%
 flops max/rank                     61.504000E+03       1.3%     98.7%      0.0%
 matmuls inhomo. stacks                         0       0.0%      0.0%      0.0%
 matmuls total                                792       6.4%     93.6%      0.0%
 number of processed stacks                   470      10.9%     89.1%      0.0%
 average stack size                                     1.0       1.8       0.0
 marketing flops                    67.184000E+03
 -------------------------------------------------------------------------------
 # multiplications                            492
 max memory usage/rank             273.276928E+06
 # max total images/rank                        1
 # max 3D layers                                1
 # MPI messages exchanged                       0
 -------------------------------------------------------------------------------
 -                                                                             -
 -                      DBCSR MESSAGE PASSING PERFORMANCE                      -
 -                                                                             -
 -------------------------------------------------------------------------------
 ROUTINE             CALLS      AVE VOLUME [Bytes]
 MP_Bcast                7                     12.
 MP_Allreduce         2542                      8.
 MP_Alltoall          2325                     42.
 MP_ISend             1902                     33.
 MP_IRecv             1902                     33.
 -------------------------------------------------------------------------------

 -------------------------------------------------------------------------------
 -                                                                             -
 -                                DBM STATISTICS                               -
 -                                                                             -
 -------------------------------------------------------------------------------
    M  x    N  x    K                                          COUNT     PERCENT
 -------------------------------------------------------------------------------

 -------------------------------------------------------------------------------
 -                                                                             -
 -                                GRID STATISTICS                              -
 -                                                                             -
 -------------------------------------------------------------------------------
 LP    KERNEL             BACKEND                              COUNT     PERCENT
 0     collocate ortho    REF                                  12012      35.54%
 0     integrate ortho    REF                                  10920      32.31%
 1     integrate ortho    REF                                   5292      15.66%
 1     collocate ortho    REF                                   4620      13.67%
 2     integrate ortho    REF                                    660       1.95%
 2     collocate ortho    REF                                    264       0.78%
 3     integrate ortho    REF                                     24       0.07%
 0     collocate general  REF                                      2       0.01%
 1     integrate general  REF                                      2       0.01%
 -------------------------------------------------------------------------------

 MEMORY| Estimated peak process memory [MiB]                                 261

 -------------------------------------------------------------------------------
 -                                                                             -
 -                         MESSAGE PASSING PERFORMANCE                         -
 -                                                                             -
 -------------------------------------------------------------------------------

 ROUTINE             CALLS      AVE VOLUME [Bytes]
 MP_Group                4
 MP_Bcast               44                   2119.
 MP_Allreduce          569                      9.
 MP_Sync                 6
 -------------------------------------------------------------------------------


 -------------------------------------------------------------------------------
 -                                                                             -
 -                           R E F E R E N C E S                               -
 -                                                                             -
 -------------------------------------------------------------------------------
 
 CP2K version 2022.1 (Development Version), the CP2K developers group (2022).
 CP2K is freely available from https://www.cp2k.org/ .

 Kuehne,Thomas D.; Iannuzzi,Marcella; Del Ben,Mauro;
 Rybkin,Vladimir V.; Seewald,Patrick; Stein,Frederick; Laino,Teodoro;
 Khaliullin,Rustam Z.; Schuett,Ole; Schiffmann,Florian; Golze,Dorothea;
 Wilhelm,Jan; Chulkov,Sergey; Bani-Hashemian,Mohammad Hossein;
 Weber,Valery; Borstnik,Urban; Taillefumier,Mathieu;
 Jakobovits,Alice Shoshana; Lazzaro,Alfio; Pabst,Hans; Mueller,Tiziano;
 Schade,Robert; Guidon,Manuel; Andermatt,Samuel; Holmberg,Nico;
 Schenter,Gregory K.; Hehn,Anna; Bussy,Augustin; Belleflamme,Fabian;
 Tabacchi,Gloria; Gloess,Andreas; Lass,Michael; Bethune,Iain;
 Mundy,Christopher J.; Plessl,Christian; Watkins,Matt;
 VandeVondele,Joost; Krack,Matthias; Hutter,Juerg. 
 The Journal of Chemical Physics, 152 (19), (2020). 
 CP2K: An electronic structure and molecular dynamics software package -
 Quickstep: Efficient and accurate electronic structure calculations.
 https://doi.org/10.1063/5.0007045

 Schuett, Ole; Messmer, Peter; Hutter, Juerg; VandeVondele, Joost. 
 Electronic Structure Calculations on Graphics Processing Units, John
 Wiley & Sons, Ltd, 173-190 (2016). 
 GPU-Accelerated Sparse Matrix-Matrix Multiplication for
 Linear Scaling Density Functional Theory.
 https://doi.org/10.1002/9781118670712.ch8

 Heinecke, A; Henry, G; Hutchinson, M; Pabst, H. 
 Proceedings of Intl. Supercomputing Conference, 981-991 (2016). 
 LIBXSMM: Accelerating Small Matrix Multiplications
 by Runtime Code Generation.
 https://doi.org/10.1109/SC.2016.83

 Borstnik, U; VandeVondele, J; Weber, V; Hutter, J. 
 PARALLEL COMPUTING, 40 (5-6), 47-58 (2014). 
 Sparse matrix multiplication: The distributed block-compressed sparse
 row library.
 https://doi.org/10.1016/j.parco.2014.03.012

 Hutter, J; Iannuzzi, M; Schiffmann, F; VandeVondele, J. 
 WIREs Comput Mol Sci., 4 (1), 15-25 (2014). 
 CP2K: atomistic simulations of condensed matter systems.
 https://doi.org/10.1002/wcms.1159

 Marek, A; Blum, V; Johanni, R; Havu, V; Lang, B; Auckenthaler, T;
 Heinecke, A; Bungartz, H; Lederer, H. 
 Journal of Physics: Condensed Matter, 26 (21), (2014). 
 The ELPA library: scalable parallel eigenvalue solutions for
 electronic structure
 theory and computational science.
 https://doi.org/10.1088/0953-8984/26/21/213201

 Krack, M. 
 THEORETICAL CHEMISTRY ACCOUNTS, 114 (1-3), 145-152 (2005). 
 Pseudopotentials for H to Kr optimized for gradient-corrected
 exchange-correlation functionals.
 https://doi.org/10.1007/s00214-005-0655-y

 VandeVondele, J; Krack, M; Mohamed, F; Parrinello, M; Chassaing, T;
 Hutter, J. COMPUTER PHYSICS COMMUNICATIONS, 167 (2), 103-128 (2005). 
 QUICKSTEP: Fast and accurate density functional calculations using a
 mixed Gaussian and plane waves approach.
 https://doi.org/10.1016/j.cpc.2004.12.014

 Frigo, M; Johnson, SG. 
 PROCEEDINGS OF THE IEEE, 93 (2), 216-231 (2005). 
 The design and implementation of FFTW3.
 https://doi.org/10.1109/JPROC.2004.840301

 VandeVondele, J; Hutter, J. 
 JOURNAL OF CHEMICAL PHYSICS, 118 (10), 4365-4369 (2003). 
 An efficient orbital transformation method for electronic structure
 calculations.
 https://doi.org/10.1063/1.1543154

 Hartwigsen, C; Goedecker, S; Hutter, J. 
 PHYSICAL REVIEW B, 58 (7), 3641-3662 (1998). 
 Relativistic separable dual-space Gaussian pseudopotentials from H to Rn.
 https://doi.org/10.1103/PhysRevB.58.3641

 Lippert, G; Hutter, J; Parrinello, M. 
 MOLECULAR PHYSICS, 92 (3), 477-487 (1997). 
 A hybrid Gaussian and plane wave density functional scheme.
 https://doi.org/10.1080/002689797170220

 Goedecker, S; Teter, M; Hutter, J. 
 PHYSICAL REVIEW B, 54 (3), 1703-1710 (1996). 
 Separable dual-space Gaussian pseudopotentials.
 https://doi.org/10.1103/PhysRevB.54.1703

 BECKE, AD. PHYSICAL REVIEW A, 38 (6), 3098-3100 (1988). 
 DENSITY-FUNCTIONAL EXCHANGE-ENERGY APPROXIMATION WITH CORRECT
 ASYMPTOTIC-BEHAVIOR.
 https://doi.org/10.1103/PhysRevA.38.3098

 LEE, CT; YANG, WT; PARR, RG. 
 PHYSICAL REVIEW B, 37 (2), 785-789 (1988). 
 DEVELOPMENT OF THE COLLE-SALVETTI CORRELATION-ENERGY FORMULA INTO A
 FUNCTIONAL OF THE ELECTRON-DENSITY.
 https://doi.org/10.1103/PhysRevB.37.785


 -------------------------------------------------------------------------------
 -                                                                             -
 -                                T I M I N G                                  -
 -                                                                             -
 -------------------------------------------------------------------------------
 SUBROUTINE                       CALLS  ASD         SELF TIME        TOTAL TIME
                                MAXIMUM       AVERAGE  MAXIMUM  AVERAGE  MAXIMUM
 CP2K                                 1  1.0    0.008    0.008    6.209    6.209
 qs_forces                            1  2.0    0.000    0.000    6.150    6.150
 rebuild_ks_matrix                   11  6.7    0.000    0.000    5.687    5.687
 qs_ks_build_kohn_sham_matrix        11  7.7    0.001    0.001    5.687    5.687
 qs_energies                          1  3.0    0.000    0.000    5.584    5.584
 scf_env_do_scf                       1  4.0    0.000    0.000    5.522    5.522
 qs_ks_update_qs_env                 11  6.0    0.000    0.000    5.123    5.123
 scf_env_do_scf_inner_loop           10  5.0    0.001    0.001    4.975    4.975
 xc_vxc_pw_create                    33  9.7    0.133    0.133    4.475    4.475
 low_spin_roks                       11  8.7    0.012    0.012    3.951    3.951
 pw_transfer                       1090 11.7    0.050    0.050    3.254    3.254
 fft_wrap_pw1pw2                   1068 12.8    0.006    0.006    3.196    3.196
 fft_wrap_pw1pw2_170                672 14.1    0.182    0.182    3.085    3.085
 xc_rho_set_and_dset_create          33 10.7    0.278    0.278    2.778    2.778
 xc_pw_derive                       396 11.7    0.002    0.002    2.272    2.272
 fft3d_s                           1069 14.8    1.742    1.742    1.750    1.750
 xc_pw_divergence                    66 10.7    0.001    0.001    1.484    1.484
 qs_vxc_create                       11  8.7    0.000    0.000    1.454    1.454
 xc_functional_eval                  66 11.7    0.001    0.001    1.266    1.266
 lyp_lsd_eval                        33 12.7    1.016    1.016    1.016    1.016
 calculate_rho_elec                  66  8.8    0.016    0.016    0.873    0.873
 density_rs2pw                       66  9.8    0.001    0.001    0.750    0.750
 pw_scatter_s                       539 14.9    0.715    0.715    0.715    0.715
 qs_ks_update_qs_env_forces           1  3.0    0.000    0.000    0.564    0.564
 init_scf_loop                        1  5.0    0.000    0.000    0.547    0.547
 pw_gather_s                        529 14.6    0.536    0.536    0.536    0.536
 integrate_v_rspace                  66  9.7    0.001    0.001    0.483    0.483
 potential_pw2rs                     66 10.7    0.002    0.002    0.405    0.405
 pw_derive                          396 12.7    0.321    0.321    0.321    0.321
 qs_rho_update_rho_low               11  6.0    0.000    0.000    0.309    0.309
 xb88_lsd_eval                       33 12.7    0.249    0.249    0.249    0.249
 pw_copy                            628 11.9    0.179    0.179    0.179    0.179
 sum_up_and_integrate                11  8.7    0.012    0.012    0.174    0.174
 pw_axpy                            749 11.0    0.157    0.157    0.157    0.157
 dbcsr_multiply_generic             492 10.7    0.009    0.009    0.139    0.139
 qs_scf_new_mos                      10  6.0    0.000    0.000    0.125    0.125
 qs_scf_loop_do_ot                   10  7.0    0.000    0.000    0.125    0.125
 -------------------------------------------------------------------------------

 The number of warnings for this run is : 0
 
 -------------------------------------------------------------------------------
  **** **** ******  **  PROGRAM ENDED AT                 2022-12-12 18:10:37.663
 ***** ** ***  *** **   PROGRAM RAN ON                           xissand-MS-7A34
 **    ****   ******    PROGRAM RAN BY                                         j
 ***** **    ** ** **   PROGRAM PROCESS ID                                 99844
  **** **  *******  **  PROGRAM STOPPED IN     /home/j/Study/QMComp/HW/3_cp2k/T1
 DBCSR| CPU Multiplication driver                                           XSMM
 DBCSR| Multrec recursion limit                                              512
 DBCSR| Multiplication stack size                                           1000
 DBCSR| Maximum elements for images                                    UNLIMITED
 DBCSR| Multiplicative factor virtual images                                   1
 DBCSR| Use multiplication densification                                       T
 DBCSR| Multiplication size stacks                                             3
 DBCSR| Use memory pool for CPU allocation                                     F
 DBCSR| Number of 3D layers                                               SINGLE
 DBCSR| Use MPI memory allocation                                              F
 DBCSR| Use RMA algorithm                                                      F
 DBCSR| Use Communication thread                                               T
 DBCSR| Communication thread load                                             87
 DBCSR| MPI: My node id                                                        0
 DBCSR| MPI: Number of nodes                                                   1
 DBCSR| OMP: Current number of threads                                         1
 DBCSR| OMP: Max number of threads                                             1
 DBCSR| Split modifier for TAS multiplication algorithm                  1.0E+00


  **** **** ******  **  PROGRAM STARTED AT               2022-12-12 18:22:19.183
 ***** ** ***  *** **   PROGRAM STARTED ON                       xissand-MS-7A34
 **    ****   ******    PROGRAM STARTED BY                                     j
 ***** **    ** ** **   PROGRAM PROCESS ID                                102717
  **** **  *******  **  PROGRAM STARTED IN     /home/j/Study/QMComp/HW/3_cp2k/T1

 CP2K| version string:                 CP2K version 2022.1 (Development Version)
 CP2K| source code revision number:                                  git:a213519
 CP2K| cp2kflags: omp fftw3 libxc elpa parallel mpi3 scalapack cosma xsmm spglib
 CP2K|             sirius libvori libbqb libvdwxc
 CP2K| is freely available from                            https://www.cp2k.org/
 CP2K| Program compiled at                       Tue Nov  8 04:05:17 PM MSK 2022
 CP2K| Program compiled on                                       xissand-MS-7A34
 CP2K| Program compiled for                                                local
 CP2K| Data directory path                          /home/j/Study/cp2k/cp2k/data
 CP2K| Input file name                                                  cp2k.inp

 GLOBAL| Force Environment number                                              1
 GLOBAL| Basis set file name                                           BASIS_SET
 GLOBAL| Potential file name                                      GTH_POTENTIALS
 GLOBAL| MM Potential file name                                     MM_POTENTIAL
 GLOBAL| Coordinate file name                                      __STD_INPUT__
 GLOBAL| Method name                                                        CP2K
 GLOBAL| Project name                                                 H2_08_1600
 GLOBAL| Run type                                                   ENERGY_FORCE
 GLOBAL| FFT library                                                       FFTW3
 GLOBAL| Diagonalization library                                            ELPA
 GLOBAL| DGEMM library                                                      BLAS
 GLOBAL| Minimum number of eigenvectors for ELPA usage                        16
 GLOBAL| Orthonormality check for eigenvectors                          DISABLED
 GLOBAL| Matrix multiplication library                                     COSMA
 GLOBAL| All-to-all communication in single precision                          F
 GLOBAL| FFTs using library dependent lengths                                  F
 GLOBAL| Grid backend                                                       AUTO
 GLOBAL| Global print level                                                  LOW
 GLOBAL| MPI I/O enabled                                                       T
 GLOBAL| Total number of message passing processes                             1
 GLOBAL| Number of threads for this process                                    1
 GLOBAL| This output is from process                                           0
 GLOBAL| Stack size for threads created by OpenMP (OMP_STACKSIZE)        default
 GLOBAL| CPU model name                    AMD Ryzen 5 1500X Quad-Core Processor
 GLOBAL| CPUID                                                              1002
 GLOBAL| Compiled for CPUID                                                    0

 *** HINT in environment.F:884 :: The compiler target flags (generic) used ***
 *** to build this binary cannot exploit all extensions of this CPU model  ***
 *** (x86_avx2). Consider compiler target flags as part of FCFLAGS and     ***
 *** CFLAGS (ARCH file).                                                   ***


 MEMORY| system memory details [Kb]
 MEMORY|                        rank 0           min           max       average
 MEMORY| MemTotal             16331996      16331996      16331996      16331996
 MEMORY| MemFree               5972500       5972500       5972500       5972500
 MEMORY| Buffers               1158236       1158236       1158236       1158236
 MEMORY| Cached                4267588       4267588       4267588       4267588
 MEMORY| Slab                   804260        804260        804260        804260
 MEMORY| SReclaimable           630364        630364        630364        630364
 MEMORY| MemLikelyFree        12028688      12028688      12028688      12028688


 GENERATE|  Preliminary Number of Bonds generated:                             0
 GENERATE|  Achieved consistency in connectivity generation.

 *******************************************************************************
 *******************************************************************************
 **                                                                           **
 **     #####                         ##              ##                      **
 **    ##   ##            ##          ##              ##                      **
 **   ##     ##                       ##            ######                    **
 **   ##     ##  ##   ##  ##   #####  ##  ##   ####   ##    #####    #####    **
 **   ##     ##  ##   ##  ##  ##      ## ##   ##      ##   ##   ##  ##   ##   **
 **   ##  ## ##  ##   ##  ##  ##      ####     ###    ##   ######   ######    **
 **    ##  ###   ##   ##  ##  ##      ## ##      ##   ##   ##       ##        **
 **     #######   #####   ##   #####  ##  ##  ####    ##    #####   ##        **
 **           ##                                                    ##        **
 **                                                                           **
 **                                                ... make the atoms dance   **
 **                                                                           **
 **            Copyright (C) by CP2K developers group (2000-2022)             **
 **                      J. Chem. Phys. 152, 194103 (2020)                    **
 **                                                                           **
 *******************************************************************************
 
  **************************************
  restricted calculation cutting corners
  experimental feature, check code      
  **************************************


 TOTAL NUMBERS AND MAXIMUM NUMBERS

  Total number of            - Atomic kinds:                                   1
                             - Atoms:                                          2
                             - Shell sets:                                     4
                             - Shells:                                         6
                             - Primitive Cartesian functions:                 10
                             - Cartesian basis functions:                     10
                             - Spherical basis functions:                     10

  Maximum angular momentum of- Orbital basis functions:                        1
                             - Local part of the GTH pseudopotential:          2


 SCF PARAMETERS         Density guess:                                    ATOMIC
                        --------------------------------------------------------
                        max_scf:                                             400
                        max_scf_history:                                       0
                        max_diis:                                              4
                        --------------------------------------------------------
                        eps_scf:                                        1.00E-06
                        eps_scf_history:                                0.00E+00
                        eps_diis:                                       1.00E-01
                        eps_eigval:                                     1.00E-05
                        --------------------------------------------------------
                        level_shift [a.u.]:                             0.000000
                        --------------------------------------------------------
                        No outer SCF

 Spin 1

 Number of electrons:                                                          2
 Number of occupied orbitals:                                                  2
 Number of molecular orbitals:                                                 2

 Spin 2

 Number of electrons:                                                          0
 Number of occupied orbitals:                                                  0
 Number of molecular orbitals:                                                 0

 Number of orbital functions:                                                 10
 Number of independent orbital functions:                                     10

 Extrapolation method: initial_guess


 SCF WAVEFUNCTION OPTIMIZATION

  ----------------------------------- OT ---------------------------------------
  Allowing for rotations 
  Minimizer      : DIIS                : direct inversion
                                         in the iterative subspace
                                         using   7 DIIS vectors
                                         safer DIIS on
  Preconditioner : FULL_SINGLE         : diagonalization based
  Precond_solver : DEFAULT
  stepsize       :    0.15000000                  energy_gap     :    0.20000000
  eps_taylor     :   0.10000E-15                  max_taylor     :             4
  ----------------------------------- OT ---------------------------------------

  Step     Update method      Time    Convergence         Total energy    Change
  ------------------------------------------------------------------------------
     1 OT DIIS     0.15E+00    0.5     0.03762937        -0.8154751493 -8.15E-01
     2 OT DIIS     0.15E+00    0.5     0.02747202        -0.8191448431 -3.67E-03
     3 OT DIIS     0.15E+00    0.5     0.00556367        -0.8233870499 -4.24E-03
     4 OT DIIS     0.15E+00    0.5     0.00123142        -0.8235512935 -1.64E-04
     5 OT DIIS     0.15E+00    0.5     0.00075258        -0.8235582173 -6.92E-06
     6 OT SD       0.15E+00    0.6     0.00051786        -0.8235599200 -1.70E-06
     7 OT DIIS     0.15E+00    0.6     0.00037834        -0.8235606138 -6.94E-07
     8 OT DIIS     0.15E+00    0.6     0.00010133        -0.8235612863 -6.73E-07
     9 OT DIIS     0.15E+00    0.6     0.00001168        -0.8235613376 -5.13E-08
    10 OT DIIS     0.15E+00    0.5     0.00000039        -0.8235613383 -7.37E-10

  *** SCF run converged in    10 steps ***


  Electronic density on regular grids:         -1.9999999998        0.0000000002
  Core density on regular grids:                1.9999999999       -0.0000000001
  Total charge density on r-space grids:        0.0000000001
  Total charge density g-space grids:           0.0000000001

  Overlap energy of the core charge distribution:               0.00000000000000
  Self energy of the core charge distribution:                 -2.82094791773878
  Core Hamiltonian energy:                                      0.90243683660191
  Hartree energy:                                               1.58870831385071
  Exchange-correlation energy:                                 -0.49375857105217

  Total energy:                                                -0.82356133833833

  Integrated absolute spin density  :                               1.9999999998
  Ideal and single determinant S**2 :                    2.000000       2.000000

 ENERGY| Total FORCE_EVAL ( QS ) energy [a.u.]:               -0.823561338338987

 -------------------------------------------------------------------------------
 -                                                                             -
 -                                DBCSR STATISTICS                             -
 -                                                                             -
 -------------------------------------------------------------------------------
 COUNTER                                    TOTAL       BLAS       SMM       ACC
 flops     2 x     2 x     2                 3584      22.8%     77.2%      0.0%
 flops     2 x     2 x    10                 4000       0.0%    100.0%      0.0%
 flops    10 x     2 x    10                 4400       0.0%    100.0%      0.0%
 flops    10 x     2 x     2                 4720       0.0%    100.0%      0.0%
 flops     5 x     5 x     2                16800       0.0%    100.0%      0.0%
 flops     5 x     2 x     5                28000       0.0%    100.0%      0.0%
 flops inhomo. stacks                           0       0.0%      0.0%      0.0%
 flops total                        61.504000E+03       1.3%     98.7%      0.0%
 flops max/rank                     61.504000E+03       1.3%     98.7%      0.0%
 matmuls inhomo. stacks                         0       0.0%      0.0%      0.0%
 matmuls total                                792       6.4%     93.6%      0.0%
 number of processed stacks                   470      10.9%     89.1%      0.0%
 average stack size                                     1.0       1.8       0.0
 marketing flops                    67.184000E+03
 -------------------------------------------------------------------------------
 # multiplications                            492
 max memory usage/rank             272.830464E+06
 # max total images/rank                        1
 # max 3D layers                                1
 # MPI messages exchanged                       0
 -------------------------------------------------------------------------------
 -                                                                             -
 -                      DBCSR MESSAGE PASSING PERFORMANCE                      -
 -                                                                             -
 -------------------------------------------------------------------------------
 ROUTINE             CALLS      AVE VOLUME [Bytes]
 MP_Bcast                7                     12.
 MP_Allreduce         2542                      8.
 MP_Alltoall          2325                     42.
 MP_ISend             1902                     33.
 MP_IRecv             1902                     33.
 -------------------------------------------------------------------------------

 -------------------------------------------------------------------------------
 -                                                                             -
 -                                DBM STATISTICS                               -
 -                                                                             -
 -------------------------------------------------------------------------------
    M  x    N  x    K                                          COUNT     PERCENT
 -------------------------------------------------------------------------------

 -------------------------------------------------------------------------------
 -                                                                             -
 -                                GRID STATISTICS                              -
 -                                                                             -
 -------------------------------------------------------------------------------
 LP    KERNEL             BACKEND                              COUNT     PERCENT
 0     collocate ortho    REF                                  12012      35.54%
 0     integrate ortho    REF                                  10920      32.31%
 1     integrate ortho    REF                                   5292      15.66%
 1     collocate ortho    REF                                   4620      13.67%
 2     integrate ortho    REF                                    660       1.95%
 2     collocate ortho    REF                                    264       0.78%
 3     integrate ortho    REF                                     24       0.07%
 0     collocate general  REF                                      2       0.01%
 1     integrate general  REF                                      2       0.01%
 -------------------------------------------------------------------------------

 MEMORY| Estimated peak process memory [MiB]                                 261

 -------------------------------------------------------------------------------
 -                                                                             -
 -                         MESSAGE PASSING PERFORMANCE                         -
 -                                                                             -
 -------------------------------------------------------------------------------

 ROUTINE             CALLS      AVE VOLUME [Bytes]
 MP_Group                4
 MP_Bcast               44                   2119.
 MP_Allreduce          569                      9.
 MP_Sync                 6
 -------------------------------------------------------------------------------


 -------------------------------------------------------------------------------
 -                                                                             -
 -                           R E F E R E N C E S                               -
 -                                                                             -
 -------------------------------------------------------------------------------
 
 CP2K version 2022.1 (Development Version), the CP2K developers group (2022).
 CP2K is freely available from https://www.cp2k.org/ .

 Kuehne,Thomas D.; Iannuzzi,Marcella; Del Ben,Mauro;
 Rybkin,Vladimir V.; Seewald,Patrick; Stein,Frederick; Laino,Teodoro;
 Khaliullin,Rustam Z.; Schuett,Ole; Schiffmann,Florian; Golze,Dorothea;
 Wilhelm,Jan; Chulkov,Sergey; Bani-Hashemian,Mohammad Hossein;
 Weber,Valery; Borstnik,Urban; Taillefumier,Mathieu;
 Jakobovits,Alice Shoshana; Lazzaro,Alfio; Pabst,Hans; Mueller,Tiziano;
 Schade,Robert; Guidon,Manuel; Andermatt,Samuel; Holmberg,Nico;
 Schenter,Gregory K.; Hehn,Anna; Bussy,Augustin; Belleflamme,Fabian;
 Tabacchi,Gloria; Gloess,Andreas; Lass,Michael; Bethune,Iain;
 Mundy,Christopher J.; Plessl,Christian; Watkins,Matt;
 VandeVondele,Joost; Krack,Matthias; Hutter,Juerg. 
 The Journal of Chemical Physics, 152 (19), (2020). 
 CP2K: An electronic structure and molecular dynamics software package -
 Quickstep: Efficient and accurate electronic structure calculations.
 https://doi.org/10.1063/5.0007045

 Schuett, Ole; Messmer, Peter; Hutter, Juerg; VandeVondele, Joost. 
 Electronic Structure Calculations on Graphics Processing Units, John
 Wiley & Sons, Ltd, 173-190 (2016). 
 GPU-Accelerated Sparse Matrix-Matrix Multiplication for
 Linear Scaling Density Functional Theory.
 https://doi.org/10.1002/9781118670712.ch8

 Heinecke, A; Henry, G; Hutchinson, M; Pabst, H. 
 Proceedings of Intl. Supercomputing Conference, 981-991 (2016). 
 LIBXSMM: Accelerating Small Matrix Multiplications
 by Runtime Code Generation.
 https://doi.org/10.1109/SC.2016.83

 Borstnik, U; VandeVondele, J; Weber, V; Hutter, J. 
 PARALLEL COMPUTING, 40 (5-6), 47-58 (2014). 
 Sparse matrix multiplication: The distributed block-compressed sparse
 row library.
 https://doi.org/10.1016/j.parco.2014.03.012

 Hutter, J; Iannuzzi, M; Schiffmann, F; VandeVondele, J. 
 WIREs Comput Mol Sci., 4 (1), 15-25 (2014). 
 CP2K: atomistic simulations of condensed matter systems.
 https://doi.org/10.1002/wcms.1159

 Marek, A; Blum, V; Johanni, R; Havu, V; Lang, B; Auckenthaler, T;
 Heinecke, A; Bungartz, H; Lederer, H. 
 Journal of Physics: Condensed Matter, 26 (21), (2014). 
 The ELPA library: scalable parallel eigenvalue solutions for
 electronic structure
 theory and computational science.
 https://doi.org/10.1088/0953-8984/26/21/213201

 Krack, M. 
 THEORETICAL CHEMISTRY ACCOUNTS, 114 (1-3), 145-152 (2005). 
 Pseudopotentials for H to Kr optimized for gradient-corrected
 exchange-correlation functionals.
 https://doi.org/10.1007/s00214-005-0655-y

 VandeVondele, J; Krack, M; Mohamed, F; Parrinello, M; Chassaing, T;
 Hutter, J. COMPUTER PHYSICS COMMUNICATIONS, 167 (2), 103-128 (2005). 
 QUICKSTEP: Fast and accurate density functional calculations using a
 mixed Gaussian and plane waves approach.
 https://doi.org/10.1016/j.cpc.2004.12.014

 Frigo, M; Johnson, SG. 
 PROCEEDINGS OF THE IEEE, 93 (2), 216-231 (2005). 
 The design and implementation of FFTW3.
 https://doi.org/10.1109/JPROC.2004.840301

 VandeVondele, J; Hutter, J. 
 JOURNAL OF CHEMICAL PHYSICS, 118 (10), 4365-4369 (2003). 
 An efficient orbital transformation method for electronic structure
 calculations.
 https://doi.org/10.1063/1.1543154

 Hartwigsen, C; Goedecker, S; Hutter, J. 
 PHYSICAL REVIEW B, 58 (7), 3641-3662 (1998). 
 Relativistic separable dual-space Gaussian pseudopotentials from H to Rn.
 https://doi.org/10.1103/PhysRevB.58.3641

 Lippert, G; Hutter, J; Parrinello, M. 
 MOLECULAR PHYSICS, 92 (3), 477-487 (1997). 
 A hybrid Gaussian and plane wave density functional scheme.
 https://doi.org/10.1080/002689797170220

 Goedecker, S; Teter, M; Hutter, J. 
 PHYSICAL REVIEW B, 54 (3), 1703-1710 (1996). 
 Separable dual-space Gaussian pseudopotentials.
 https://doi.org/10.1103/PhysRevB.54.1703

 BECKE, AD. PHYSICAL REVIEW A, 38 (6), 3098-3100 (1988). 
 DENSITY-FUNCTIONAL EXCHANGE-ENERGY APPROXIMATION WITH CORRECT
 ASYMPTOTIC-BEHAVIOR.
 https://doi.org/10.1103/PhysRevA.38.3098

 LEE, CT; YANG, WT; PARR, RG. 
 PHYSICAL REVIEW B, 37 (2), 785-789 (1988). 
 DEVELOPMENT OF THE COLLE-SALVETTI CORRELATION-ENERGY FORMULA INTO A
 FUNCTIONAL OF THE ELECTRON-DENSITY.
 https://doi.org/10.1103/PhysRevB.37.785


 -------------------------------------------------------------------------------
 -                                                                             -
 -                                T I M I N G                                  -
 -                                                                             -
 -------------------------------------------------------------------------------
 SUBROUTINE                       CALLS  ASD         SELF TIME        TOTAL TIME
                                MAXIMUM       AVERAGE  MAXIMUM  AVERAGE  MAXIMUM
 CP2K                                 1  1.0    0.008    0.008    6.206    6.206
 qs_forces                            1  2.0    0.000    0.000    6.148    6.148
 rebuild_ks_matrix                   11  6.7    0.000    0.000    5.677    5.677
 qs_ks_build_kohn_sham_matrix        11  7.7    0.001    0.001    5.677    5.677
 qs_energies                          1  3.0    0.000    0.000    5.639    5.639
 scf_env_do_scf                       1  4.0    0.000    0.000    5.577    5.577
 qs_ks_update_qs_env                 11  6.0    0.000    0.000    5.170    5.170
 scf_env_do_scf_inner_loop           10  5.0    0.001    0.001    5.050    5.050
 xc_vxc_pw_create                    33  9.7    0.131    0.131    4.458    4.458
 low_spin_roks                       11  8.7    0.012    0.012    3.926    3.926
 pw_transfer                       1090 11.7    0.049    0.049    3.264    3.264
 fft_wrap_pw1pw2                   1068 12.8    0.007    0.007    3.206    3.206
 fft_wrap_pw1pw2_170                672 14.1    0.182    0.182    3.096    3.096
 xc_rho_set_and_dset_create          33 10.7    0.277    0.277    2.770    2.770
 xc_pw_derive                       396 11.7    0.002    0.002    2.270    2.270
 fft3d_s                           1069 14.8    1.744    1.744    1.752    1.752
 xc_pw_divergence                    66 10.7    0.001    0.001    1.475    1.475
 qs_vxc_create                       11  8.7    0.000    0.000    1.467    1.467
 xc_functional_eval                  66 11.7    0.001    0.001    1.259    1.259
 lyp_lsd_eval                        33 12.7    1.015    1.015    1.015    1.015
 calculate_rho_elec                  66  8.8    0.016    0.016    0.880    0.880
 density_rs2pw                       66  9.8    0.001    0.001    0.757    0.757
 pw_scatter_s                       539 14.9    0.712    0.712    0.712    0.712
 pw_gather_s                        529 14.6    0.546    0.546    0.546    0.546
 init_scf_loop                        1  5.0    0.000    0.000    0.527    0.527
 qs_ks_update_qs_env_forces           1  3.0    0.000    0.000    0.508    0.508
 integrate_v_rspace                  66  9.7    0.001    0.001    0.490    0.490
 potential_pw2rs                     66 10.7    0.002    0.002    0.412    0.412
 pw_derive                          396 12.7    0.320    0.320    0.320    0.320
 qs_rho_update_rho_low               11  6.0    0.000    0.000    0.316    0.316
 xb88_lsd_eval                       33 12.7    0.244    0.244    0.244    0.244
 pw_copy                            628 11.9    0.179    0.179    0.179    0.179
 sum_up_and_integrate                11  8.7    0.012    0.012    0.173    0.173
 pw_axpy                            749 11.0    0.157    0.157    0.157    0.157
 dbcsr_multiply_generic             492 10.7    0.009    0.009    0.138    0.138
 qs_scf_new_mos                      10  6.0    0.000    0.000    0.126    0.126
 qs_scf_loop_do_ot                   10  7.0    0.000    0.000    0.126    0.126
 -------------------------------------------------------------------------------

 The number of warnings for this run is : 0
 
 -------------------------------------------------------------------------------
  **** **** ******  **  PROGRAM ENDED AT                 2022-12-12 18:22:25.937
 ***** ** ***  *** **   PROGRAM RAN ON                           xissand-MS-7A34
 **    ****   ******    PROGRAM RAN BY                                         j
 ***** **    ** ** **   PROGRAM PROCESS ID                                102717
  **** **  *******  **  PROGRAM STOPPED IN     /home/j/Study/QMComp/HW/3_cp2k/T1
