 DBCSR| CPU Multiplication driver                                           XSMM
 DBCSR| Multrec recursion limit                                              512
 DBCSR| Multiplication stack size                                           1000
 DBCSR| Maximum elements for images                                    UNLIMITED
 DBCSR| Multiplicative factor virtual images                                   1
 DBCSR| Use multiplication densification                                       T
 DBCSR| Multiplication size stacks                                             3
 DBCSR| Use memory pool for CPU allocation                                     F
 DBCSR| Number of 3D layers                                               SINGLE
 DBCSR| Use MPI memory allocation                                              F
 DBCSR| Use RMA algorithm                                                      F
 DBCSR| Use Communication thread                                               T
 DBCSR| Communication thread load                                             87
 DBCSR| MPI: My node id                                                        0
 DBCSR| MPI: Number of nodes                                                   1
 DBCSR| OMP: Current number of threads                                         1
 DBCSR| OMP: Max number of threads                                             1
 DBCSR| Split modifier for TAS multiplication algorithm                  1.0E+00


  **** **** ******  **  PROGRAM STARTED AT               2022-12-12 18:17:50.515
 ***** ** ***  *** **   PROGRAM STARTED ON                       xissand-MS-7A34
 **    ****   ******    PROGRAM STARTED BY                                     j
 ***** **    ** ** **   PROGRAM PROCESS ID                                101811
  **** **  *******  **  PROGRAM STARTED IN     /home/j/Study/QMComp/HW/3_cp2k/T1

 CP2K| version string:                 CP2K version 2022.1 (Development Version)
 CP2K| source code revision number:                                  git:a213519
 CP2K| cp2kflags: omp fftw3 libxc elpa parallel mpi3 scalapack cosma xsmm spglib
 CP2K|             sirius libvori libbqb libvdwxc
 CP2K| is freely available from                            https://www.cp2k.org/
 CP2K| Program compiled at                       Tue Nov  8 04:05:17 PM MSK 2022
 CP2K| Program compiled on                                       xissand-MS-7A34
 CP2K| Program compiled for                                                local
 CP2K| Data directory path                          /home/j/Study/cp2k/cp2k/data
 CP2K| Input file name                                                  cp2k.inp

 GLOBAL| Force Environment number                                              1
 GLOBAL| Basis set file name                                           BASIS_SET
 GLOBAL| Potential file name                                      GTH_POTENTIALS
 GLOBAL| MM Potential file name                                     MM_POTENTIAL
 GLOBAL| Coordinate file name                                      __STD_INPUT__
 GLOBAL| Method name                                                        CP2K
 GLOBAL| Project name                                                 H2_08_1600
 GLOBAL| Run type                                                   ENERGY_FORCE
 GLOBAL| FFT library                                                       FFTW3
 GLOBAL| Diagonalization library                                            ELPA
 GLOBAL| DGEMM library                                                      BLAS
 GLOBAL| Minimum number of eigenvectors for ELPA usage                        16
 GLOBAL| Orthonormality check for eigenvectors                          DISABLED
 GLOBAL| Matrix multiplication library                                     COSMA
 GLOBAL| All-to-all communication in single precision                          F
 GLOBAL| FFTs using library dependent lengths                                  F
 GLOBAL| Grid backend                                                       AUTO
 GLOBAL| Global print level                                                  LOW
 GLOBAL| MPI I/O enabled                                                       T
 GLOBAL| Total number of message passing processes                             1
 GLOBAL| Number of threads for this process                                    1
 GLOBAL| This output is from process                                           0
 GLOBAL| Stack size for threads created by OpenMP (OMP_STACKSIZE)        default
 GLOBAL| CPU model name                    AMD Ryzen 5 1500X Quad-Core Processor
 GLOBAL| CPUID                                                              1002
 GLOBAL| Compiled for CPUID                                                    0

 *** HINT in environment.F:884 :: The compiler target flags (generic) used ***
 *** to build this binary cannot exploit all extensions of this CPU model  ***
 *** (x86_avx2). Consider compiler target flags as part of FCFLAGS and     ***
 *** CFLAGS (ARCH file).                                                   ***


 MEMORY| system memory details [Kb]
 MEMORY|                        rank 0           min           max       average
 MEMORY| MemTotal             16331996      16331996      16331996      16331996
 MEMORY| MemFree               5962640       5962640       5962640       5962640
 MEMORY| Buffers               1156396       1156396       1156396       1156396
 MEMORY| Cached                4268140       4268140       4268140       4268140
 MEMORY| Slab                   804052        804052        804052        804052
 MEMORY| SReclaimable           630424        630424        630424        630424
 MEMORY| MemLikelyFree        12017600      12017600      12017600      12017600


 GENERATE|  Preliminary Number of Bonds generated:                             0
 GENERATE|  Achieved consistency in connectivity generation.

 *******************************************************************************
 *******************************************************************************
 **                                                                           **
 **     #####                         ##              ##                      **
 **    ##   ##            ##          ##              ##                      **
 **   ##     ##                       ##            ######                    **
 **   ##     ##  ##   ##  ##   #####  ##  ##   ####   ##    #####    #####    **
 **   ##     ##  ##   ##  ##  ##      ## ##   ##      ##   ##   ##  ##   ##   **
 **   ##  ## ##  ##   ##  ##  ##      ####     ###    ##   ######   ######    **
 **    ##  ###   ##   ##  ##  ##      ## ##      ##   ##   ##       ##        **
 **     #######   #####   ##   #####  ##  ##  ####    ##    #####   ##        **
 **           ##                                                    ##        **
 **                                                                           **
 **                                                ... make the atoms dance   **
 **                                                                           **
 **            Copyright (C) by CP2K developers group (2000-2022)             **
 **                      J. Chem. Phys. 152, 194103 (2020)                    **
 **                                                                           **
 *******************************************************************************
 
  **************************************
  restricted calculation cutting corners
  experimental feature, check code      
  **************************************


 TOTAL NUMBERS AND MAXIMUM NUMBERS

  Total number of            - Atomic kinds:                                   1
                             - Atoms:                                          2
                             - Shell sets:                                     4
                             - Shells:                                         6
                             - Primitive Cartesian functions:                 10
                             - Cartesian basis functions:                     10
                             - Spherical basis functions:                     10

  Maximum angular momentum of- Orbital basis functions:                        1
                             - Local part of the GTH pseudopotential:          2


 SCF PARAMETERS         Density guess:                                    ATOMIC
                        --------------------------------------------------------
                        max_scf:                                             400
                        max_scf_history:                                       0
                        max_diis:                                              4
                        --------------------------------------------------------
                        eps_scf:                                        1.00E-06
                        eps_scf_history:                                0.00E+00
                        eps_diis:                                       1.00E-01
                        eps_eigval:                                     1.00E-05
                        --------------------------------------------------------
                        level_shift [a.u.]:                             0.000000
                        --------------------------------------------------------
                        No outer SCF

 Spin 1

 Number of electrons:                                                          2
 Number of occupied orbitals:                                                  2
 Number of molecular orbitals:                                                 2

 Spin 2

 Number of electrons:                                                          0
 Number of occupied orbitals:                                                  0
 Number of molecular orbitals:                                                 0

 Number of orbital functions:                                                 10
 Number of independent orbital functions:                                     10

 Extrapolation method: initial_guess


 SCF WAVEFUNCTION OPTIMIZATION

  ----------------------------------- OT ---------------------------------------
  Allowing for rotations 
  Minimizer      : DIIS                : direct inversion
                                         in the iterative subspace
                                         using   7 DIIS vectors
                                         safer DIIS on
  Preconditioner : FULL_SINGLE         : diagonalization based
  Precond_solver : DEFAULT
  stepsize       :    0.15000000                  energy_gap     :    0.20000000
  eps_taylor     :   0.10000E-15                  max_taylor     :             4
  ----------------------------------- OT ---------------------------------------

  Step     Update method      Time    Convergence         Total energy    Change
  ------------------------------------------------------------------------------
     1 OT DIIS     0.15E+00    0.6     0.06500621        -0.8775983751 -8.78E-01
     2 OT DIIS     0.15E+00    0.6     0.06387745        -0.8901291777 -1.25E-02
     3 OT DIIS     0.15E+00    0.5     0.06259435        -0.9047822971 -1.47E-02
     4 OT DIIS     0.15E+00    0.5     0.02587637        -0.9754243153 -7.06E-02
     5 OT SD       0.15E+00    0.5     0.02201755        -0.9748999232  5.24E-04
     6 OT DIIS     0.15E+00    0.5     0.01604368        -0.9761455912 -1.25E-03
     7 OT SD       0.15E+00    0.5     0.01740448        -0.9765518850 -4.06E-04
     8 OT SD       0.15E+00    0.5     0.01156610        -0.9773000438 -7.48E-04
     9 OT DIIS     0.15E+00    0.5     0.00847443        -0.9776448716 -3.45E-04
    10 OT DIIS     0.15E+00    0.5     0.00549853        -0.9780609649 -4.16E-04
    11 OT DIIS     0.15E+00    0.5     0.00056650        -0.9782221438 -1.61E-04
    12 OT DIIS     0.15E+00    0.5     0.00028576        -0.9782230099 -8.66E-07
    13 OT DIIS     0.15E+00    0.5     0.00006902        -0.9782232942 -2.84E-07
    14 OT DIIS     0.15E+00    0.5     0.00003230        -0.9782233128 -1.86E-08
    15 OT DIIS     0.15E+00    0.6     0.00000792        -0.9782233157 -2.97E-09
    16 OT DIIS     0.15E+00    0.5     0.00000243        -0.9782233160 -2.16E-10
    17 OT DIIS     0.15E+00    0.5     0.00000120        -0.9782233160 -1.93E-11
    18 OT DIIS     0.15E+00    0.5     0.00000034        -0.9782233160 -4.68E-12

  *** SCF run converged in    18 steps ***


  Electronic density on regular grids:         -1.9999999995        0.0000000005
  Core density on regular grids:                1.9999999999       -0.0000000001
  Total charge density on r-space grids:        0.0000000004
  Total charge density g-space grids:           0.0000000004

  Overlap energy of the core charge distribution:               0.00000000000000
  Self energy of the core charge distribution:                 -2.82094791773878
  Core Hamiltonian energy:                                      0.97719223458777
  Hartree energy:                                               1.51346609581934
  Exchange-correlation energy:                                 -0.64793372864884

  Total energy:                                                -0.97822331598051

  Integrated absolute spin density  :                               1.9999999995
  Ideal and single determinant S**2 :                    2.000000       2.000000

 ENERGY| Total FORCE_EVAL ( QS ) energy [a.u.]:               -0.978223315980895

 -------------------------------------------------------------------------------
 -                                                                             -
 -                                DBCSR STATISTICS                             -
 -                                                                             -
 -------------------------------------------------------------------------------
 COUNTER                                    TOTAL       BLAS       SMM       ACC
 flops     2 x     2 x     2                 5440      26.8%     73.2%      0.0%
 flops     2 x     2 x    10                 7200       0.0%    100.0%      0.0%
 flops    10 x     2 x    10                 7600       0.0%    100.0%      0.0%
 flops    10 x     2 x     2                 8560       0.0%    100.0%      0.0%
 flops     5 x     5 x     2                28800       0.0%    100.0%      0.0%
 flops     5 x     2 x     5                47200       0.0%    100.0%      0.0%
 flops inhomo. stacks                           0       0.0%      0.0%      0.0%
 flops total                       104.800000E+03       1.4%     98.6%      0.0%
 flops max/rank                    104.800000E+03       1.4%     98.6%      0.0%
 matmuls inhomo. stacks                         0       0.0%      0.0%      0.0%
 matmuls total                               1316       6.9%     93.1%      0.0%
 number of processed stacks                   770      11.8%     88.2%      0.0%
 average stack size                                     1.0       1.8       0.0
 marketing flops                   114.480000E+03
 -------------------------------------------------------------------------------
 # multiplications                            808
 max memory usage/rank             273.002496E+06
 # max total images/rank                        1
 # max 3D layers                                1
 # MPI messages exchanged                       0
 -------------------------------------------------------------------------------
 -                                                                             -
 -                      DBCSR MESSAGE PASSING PERFORMANCE                      -
 -                                                                             -
 -------------------------------------------------------------------------------
 ROUTINE             CALLS      AVE VOLUME [Bytes]
 MP_Bcast                7                     12.
 MP_Allreduce         4210                      8.
 MP_Alltoall          3773                     37.
 MP_ISend             3118                     34.
 MP_IRecv             3118                     34.
 -------------------------------------------------------------------------------

 -------------------------------------------------------------------------------
 -                                                                             -
 -                                DBM STATISTICS                               -
 -                                                                             -
 -------------------------------------------------------------------------------
    M  x    N  x    K                                          COUNT     PERCENT
 -------------------------------------------------------------------------------

 -------------------------------------------------------------------------------
 -                                                                             -
 -                                GRID STATISTICS                              -
 -                                                                             -
 -------------------------------------------------------------------------------
 LP    KERNEL             BACKEND                              COUNT     PERCENT
 0     collocate ortho    REF                                  19722      35.02%
 0     integrate ortho    REF                                  18684      33.17%
 1     integrate ortho    REF                                   8598      15.27%
 1     collocate ortho    REF                                   7980      14.17%
 2     integrate ortho    REF                                    852       1.51%
 2     collocate ortho    REF                                    456       0.81%
 3     integrate ortho    REF                                     24       0.04%
 0     collocate general  REF                                      2       0.00%
 1     integrate general  REF                                      2       0.00%
 -------------------------------------------------------------------------------

 MEMORY| Estimated peak process memory [MiB]                                 261

 -------------------------------------------------------------------------------
 -                                                                             -
 -                         MESSAGE PASSING PERFORMANCE                         -
 -                                                                             -
 -------------------------------------------------------------------------------

 ROUTINE             CALLS      AVE VOLUME [Bytes]
 MP_Group                4
 MP_Bcast               78                   2065.
 MP_Allreduce          702                      8.
 MP_Sync                 6
 -------------------------------------------------------------------------------


 -------------------------------------------------------------------------------
 -                                                                             -
 -                           R E F E R E N C E S                               -
 -                                                                             -
 -------------------------------------------------------------------------------
 
 CP2K version 2022.1 (Development Version), the CP2K developers group (2022).
 CP2K is freely available from https://www.cp2k.org/ .

 Kuehne,Thomas D.; Iannuzzi,Marcella; Del Ben,Mauro;
 Rybkin,Vladimir V.; Seewald,Patrick; Stein,Frederick; Laino,Teodoro;
 Khaliullin,Rustam Z.; Schuett,Ole; Schiffmann,Florian; Golze,Dorothea;
 Wilhelm,Jan; Chulkov,Sergey; Bani-Hashemian,Mohammad Hossein;
 Weber,Valery; Borstnik,Urban; Taillefumier,Mathieu;
 Jakobovits,Alice Shoshana; Lazzaro,Alfio; Pabst,Hans; Mueller,Tiziano;
 Schade,Robert; Guidon,Manuel; Andermatt,Samuel; Holmberg,Nico;
 Schenter,Gregory K.; Hehn,Anna; Bussy,Augustin; Belleflamme,Fabian;
 Tabacchi,Gloria; Gloess,Andreas; Lass,Michael; Bethune,Iain;
 Mundy,Christopher J.; Plessl,Christian; Watkins,Matt;
 VandeVondele,Joost; Krack,Matthias; Hutter,Juerg. 
 The Journal of Chemical Physics, 152 (19), (2020). 
 CP2K: An electronic structure and molecular dynamics software package -
 Quickstep: Efficient and accurate electronic structure calculations.
 https://doi.org/10.1063/5.0007045

 Schuett, Ole; Messmer, Peter; Hutter, Juerg; VandeVondele, Joost. 
 Electronic Structure Calculations on Graphics Processing Units, John
 Wiley & Sons, Ltd, 173-190 (2016). 
 GPU-Accelerated Sparse Matrix-Matrix Multiplication for
 Linear Scaling Density Functional Theory.
 https://doi.org/10.1002/9781118670712.ch8

 Heinecke, A; Henry, G; Hutchinson, M; Pabst, H. 
 Proceedings of Intl. Supercomputing Conference, 981-991 (2016). 
 LIBXSMM: Accelerating Small Matrix Multiplications
 by Runtime Code Generation.
 https://doi.org/10.1109/SC.2016.83

 Borstnik, U; VandeVondele, J; Weber, V; Hutter, J. 
 PARALLEL COMPUTING, 40 (5-6), 47-58 (2014). 
 Sparse matrix multiplication: The distributed block-compressed sparse
 row library.
 https://doi.org/10.1016/j.parco.2014.03.012

 Hutter, J; Iannuzzi, M; Schiffmann, F; VandeVondele, J. 
 WIREs Comput Mol Sci., 4 (1), 15-25 (2014). 
 CP2K: atomistic simulations of condensed matter systems.
 https://doi.org/10.1002/wcms.1159

 Marek, A; Blum, V; Johanni, R; Havu, V; Lang, B; Auckenthaler, T;
 Heinecke, A; Bungartz, H; Lederer, H. 
 Journal of Physics: Condensed Matter, 26 (21), (2014). 
 The ELPA library: scalable parallel eigenvalue solutions for
 electronic structure
 theory and computational science.
 https://doi.org/10.1088/0953-8984/26/21/213201

 Krack, M. 
 THEORETICAL CHEMISTRY ACCOUNTS, 114 (1-3), 145-152 (2005). 
 Pseudopotentials for H to Kr optimized for gradient-corrected
 exchange-correlation functionals.
 https://doi.org/10.1007/s00214-005-0655-y

 VandeVondele, J; Krack, M; Mohamed, F; Parrinello, M; Chassaing, T;
 Hutter, J. COMPUTER PHYSICS COMMUNICATIONS, 167 (2), 103-128 (2005). 
 QUICKSTEP: Fast and accurate density functional calculations using a
 mixed Gaussian and plane waves approach.
 https://doi.org/10.1016/j.cpc.2004.12.014

 Frigo, M; Johnson, SG. 
 PROCEEDINGS OF THE IEEE, 93 (2), 216-231 (2005). 
 The design and implementation of FFTW3.
 https://doi.org/10.1109/JPROC.2004.840301

 VandeVondele, J; Hutter, J. 
 JOURNAL OF CHEMICAL PHYSICS, 118 (10), 4365-4369 (2003). 
 An efficient orbital transformation method for electronic structure
 calculations.
 https://doi.org/10.1063/1.1543154

 Hartwigsen, C; Goedecker, S; Hutter, J. 
 PHYSICAL REVIEW B, 58 (7), 3641-3662 (1998). 
 Relativistic separable dual-space Gaussian pseudopotentials from H to Rn.
 https://doi.org/10.1103/PhysRevB.58.3641

 Lippert, G; Hutter, J; Parrinello, M. 
 MOLECULAR PHYSICS, 92 (3), 477-487 (1997). 
 A hybrid Gaussian and plane wave density functional scheme.
 https://doi.org/10.1080/002689797170220

 Goedecker, S; Teter, M; Hutter, J. 
 PHYSICAL REVIEW B, 54 (3), 1703-1710 (1996). 
 Separable dual-space Gaussian pseudopotentials.
 https://doi.org/10.1103/PhysRevB.54.1703

 BECKE, AD. PHYSICAL REVIEW A, 38 (6), 3098-3100 (1988). 
 DENSITY-FUNCTIONAL EXCHANGE-ENERGY APPROXIMATION WITH CORRECT
 ASYMPTOTIC-BEHAVIOR.
 https://doi.org/10.1103/PhysRevA.38.3098

 LEE, CT; YANG, WT; PARR, RG. 
 PHYSICAL REVIEW B, 37 (2), 785-789 (1988). 
 DEVELOPMENT OF THE COLLE-SALVETTI CORRELATION-ENERGY FORMULA INTO A
 FUNCTIONAL OF THE ELECTRON-DENSITY.
 https://doi.org/10.1103/PhysRevB.37.785


 -------------------------------------------------------------------------------
 -                                                                             -
 -                                T I M I N G                                  -
 -                                                                             -
 -------------------------------------------------------------------------------
 SUBROUTINE                       CALLS  ASD         SELF TIME        TOTAL TIME
                                MAXIMUM       AVERAGE  MAXIMUM  AVERAGE  MAXIMUM
 CP2K                                 1  1.0    0.008    0.008   10.521   10.521
 qs_forces                            1  2.0    0.000    0.000   10.458   10.458
 qs_energies                          1  3.0    0.000    0.000    9.952    9.952
 scf_env_do_scf                       1  4.0    0.000    0.000    9.885    9.885
 rebuild_ks_matrix                   19  6.8    0.000    0.000    9.690    9.690
 qs_ks_build_kohn_sham_matrix        19  7.8    0.002    0.002    9.689    9.689
 scf_env_do_scf_inner_loop           18  5.0    0.001    0.001    9.319    9.319
 qs_ks_update_qs_env                 19  6.0    0.000    0.000    9.186    9.186
 xc_vxc_pw_create                    57  9.8    0.224    0.224    7.626    7.626
 low_spin_roks                       19  8.8    0.021    0.021    6.720    6.720
 pw_transfer                       1882 11.8    0.086    0.086    5.550    5.550
 fft_wrap_pw1pw2                   1844 12.9    0.010    0.010    5.451    5.451
 fft_wrap_pw1pw2_170               1160 14.2    0.310    0.310    5.262    5.262
 xc_rho_set_and_dset_create          57 10.8    0.476    0.476    4.724    4.724
 xc_pw_derive                       684 11.8    0.003    0.003    3.872    3.872
 fft3d_s                           1845 14.9    2.958    2.958    2.968    2.968
 xc_pw_divergence                   114 10.8    0.001    0.001    2.539    2.539
 qs_vxc_create                       19  8.8    0.000    0.000    2.495    2.495
 xc_functional_eval                 114 11.8    0.001    0.001    2.161    2.161
 lyp_lsd_eval                        57 12.8    1.738    1.738    1.738    1.738
 calculate_rho_elec                 114  8.9    0.028    0.028    1.492    1.492
 density_rs2pw                      114  9.9    0.002    0.002    1.285    1.285
 pw_scatter_s                       931 15.0    1.217    1.217    1.217    1.217
 pw_gather_s                        913 14.7    0.932    0.932    0.932    0.932
 integrate_v_rspace                 114  9.8    0.002    0.002    0.825    0.825
 potential_pw2rs                    114 10.8    0.004    0.004    0.696    0.696
 init_scf_loop                        1  5.0    0.000    0.000    0.566    0.566
 pw_derive                          684 12.8    0.545    0.545    0.545    0.545
 qs_rho_update_rho_low               19  6.0    0.000    0.000    0.528    0.528
 qs_ks_update_qs_env_forces           1  3.0    0.000    0.000    0.504    0.504
 xb88_lsd_eval                       57 12.8    0.422    0.422    0.422    0.422
 pw_copy                           1084 12.1    0.307    0.307    0.307    0.307
 sum_up_and_integrate                19  8.8    0.020    0.020    0.294    0.294
 pw_axpy                           1293 11.2    0.269    0.269    0.269    0.269
 dbcsr_multiply_generic             808 10.7    0.014    0.014    0.224    0.224
 -------------------------------------------------------------------------------

 The number of warnings for this run is : 0
 
 -------------------------------------------------------------------------------
  **** **** ******  **  PROGRAM ENDED AT                 2022-12-12 18:18:01.582
 ***** ** ***  *** **   PROGRAM RAN ON                           xissand-MS-7A34
 **    ****   ******    PROGRAM RAN BY                                         j
 ***** **    ** ** **   PROGRAM PROCESS ID                                101811
  **** **  *******  **  PROGRAM STOPPED IN     /home/j/Study/QMComp/HW/3_cp2k/T1
