 DBCSR| CPU Multiplication driver                                           XSMM
 DBCSR| Multrec recursion limit                                              512
 DBCSR| Multiplication stack size                                           1000
 DBCSR| Maximum elements for images                                    UNLIMITED
 DBCSR| Multiplicative factor virtual images                                   1
 DBCSR| Use multiplication densification                                       T
 DBCSR| Multiplication size stacks                                             3
 DBCSR| Use memory pool for CPU allocation                                     F
 DBCSR| Number of 3D layers                                               SINGLE
 DBCSR| Use MPI memory allocation                                              F
 DBCSR| Use RMA algorithm                                                      F
 DBCSR| Use Communication thread                                               T
 DBCSR| Communication thread load                                             87
 DBCSR| MPI: My node id                                                        0
 DBCSR| MPI: Number of nodes                                                   1
 DBCSR| OMP: Current number of threads                                         1
 DBCSR| OMP: Max number of threads                                             1
 DBCSR| Split modifier for TAS multiplication algorithm                  1.0E+00


  **** **** ******  **  PROGRAM STARTED AT               2022-12-12 18:00:46.170
 ***** ** ***  *** **   PROGRAM STARTED ON                       xissand-MS-7A34
 **    ****   ******    PROGRAM STARTED BY                                     j
 ***** **    ** ** **   PROGRAM PROCESS ID                                 96454
  **** **  *******  **  PROGRAM STARTED IN     /home/j/Study/QMComp/HW/3_cp2k/T1

 CP2K| version string:                 CP2K version 2022.1 (Development Version)
 CP2K| source code revision number:                                  git:a213519
 CP2K| cp2kflags: omp fftw3 libxc elpa parallel mpi3 scalapack cosma xsmm spglib
 CP2K|             sirius libvori libbqb libvdwxc
 CP2K| is freely available from                            https://www.cp2k.org/
 CP2K| Program compiled at                       Tue Nov  8 04:05:17 PM MSK 2022
 CP2K| Program compiled on                                       xissand-MS-7A34
 CP2K| Program compiled for                                                local
 CP2K| Data directory path                          /home/j/Study/cp2k/cp2k/data
 CP2K| Input file name                                                  cp2k.inp

 GLOBAL| Force Environment number                                              1
 GLOBAL| Basis set file name                                           BASIS_SET
 GLOBAL| Potential file name                                      GTH_POTENTIALS
 GLOBAL| MM Potential file name                                     MM_POTENTIAL
 GLOBAL| Coordinate file name                                      __STD_INPUT__
 GLOBAL| Method name                                                        CP2K
 GLOBAL| Project name                                                 H2_08_1600
 GLOBAL| Run type                                                   ENERGY_FORCE
 GLOBAL| FFT library                                                       FFTW3
 GLOBAL| Diagonalization library                                            ELPA
 GLOBAL| DGEMM library                                                      BLAS
 GLOBAL| Minimum number of eigenvectors for ELPA usage                        16
 GLOBAL| Orthonormality check for eigenvectors                          DISABLED
 GLOBAL| Matrix multiplication library                                     COSMA
 GLOBAL| All-to-all communication in single precision                          F
 GLOBAL| FFTs using library dependent lengths                                  F
 GLOBAL| Grid backend                                                       AUTO
 GLOBAL| Global print level                                                  LOW
 GLOBAL| MPI I/O enabled                                                       T
 GLOBAL| Total number of message passing processes                             1
 GLOBAL| Number of threads for this process                                    1
 GLOBAL| This output is from process                                           0
 GLOBAL| Stack size for threads created by OpenMP (OMP_STACKSIZE)        default
 GLOBAL| CPU model name                    AMD Ryzen 5 1500X Quad-Core Processor
 GLOBAL| CPUID                                                              1002
 GLOBAL| Compiled for CPUID                                                    0

 *** HINT in environment.F:884 :: The compiler target flags (generic) used ***
 *** to build this binary cannot exploit all extensions of this CPU model  ***
 *** (x86_avx2). Consider compiler target flags as part of FCFLAGS and     ***
 *** CFLAGS (ARCH file).                                                   ***


 MEMORY| system memory details [Kb]
 MEMORY|                        rank 0           min           max       average
 MEMORY| MemTotal             16331996      16331996      16331996      16331996
 MEMORY| MemFree               5855524       5855524       5855524       5855524
 MEMORY| Buffers               1149360       1149360       1149360       1149360
 MEMORY| Cached                4230512       4230512       4230512       4230512
 MEMORY| Slab                   800048        800048        800048        800048
 MEMORY| SReclaimable           627128        627128        627128        627128
 MEMORY| MemLikelyFree        11862524      11862524      11862524      11862524


 GENERATE|  Preliminary Number of Bonds generated:                             0
 GENERATE|  Achieved consistency in connectivity generation.

 *******************************************************************************
 *******************************************************************************
 **                                                                           **
 **     #####                         ##              ##                      **
 **    ##   ##            ##          ##              ##                      **
 **   ##     ##                       ##            ######                    **
 **   ##     ##  ##   ##  ##   #####  ##  ##   ####   ##    #####    #####    **
 **   ##     ##  ##   ##  ##  ##      ## ##   ##      ##   ##   ##  ##   ##   **
 **   ##  ## ##  ##   ##  ##  ##      ####     ###    ##   ######   ######    **
 **    ##  ###   ##   ##  ##  ##      ## ##      ##   ##   ##       ##        **
 **     #######   #####   ##   #####  ##  ##  ####    ##    #####   ##        **
 **           ##                                                    ##        **
 **                                                                           **
 **                                                ... make the atoms dance   **
 **                                                                           **
 **            Copyright (C) by CP2K developers group (2000-2022)             **
 **                      J. Chem. Phys. 152, 194103 (2020)                    **
 **                                                                           **
 *******************************************************************************
 
  **************************************
  restricted calculation cutting corners
  experimental feature, check code      
  **************************************


 TOTAL NUMBERS AND MAXIMUM NUMBERS

  Total number of            - Atomic kinds:                                   1
                             - Atoms:                                          2
                             - Shell sets:                                     4
                             - Shells:                                         6
                             - Primitive Cartesian functions:                 10
                             - Cartesian basis functions:                     10
                             - Spherical basis functions:                     10

  Maximum angular momentum of- Orbital basis functions:                        1
                             - Local part of the GTH pseudopotential:          2

 *** WARNING in particle_methods.F:677 :: The distance between the atoms 1 ***
 *** and 2 is only 0.400 angstrom and thus smaller than the threshold of   ***
 *** 0.500 angstrom                                                        ***



 SCF PARAMETERS         Density guess:                                    ATOMIC
                        --------------------------------------------------------
                        max_scf:                                             400
                        max_scf_history:                                       0
                        max_diis:                                              4
                        --------------------------------------------------------
                        eps_scf:                                        1.00E-06
                        eps_scf_history:                                0.00E+00
                        eps_diis:                                       1.00E-01
                        eps_eigval:                                     1.00E-05
                        --------------------------------------------------------
                        level_shift [a.u.]:                             0.000000
                        --------------------------------------------------------
                        No outer SCF

 Spin 1

 Number of electrons:                                                          2
 Number of occupied orbitals:                                                  2
 Number of molecular orbitals:                                                 2

 Spin 2

 Number of electrons:                                                          0
 Number of occupied orbitals:                                                  0
 Number of molecular orbitals:                                                 0

 Number of orbital functions:                                                 10
 Number of independent orbital functions:                                     10

 Extrapolation method: initial_guess


 SCF WAVEFUNCTION OPTIMIZATION

  ----------------------------------- OT ---------------------------------------
  Allowing for rotations 
  Minimizer      : DIIS                : direct inversion
                                         in the iterative subspace
                                         using   7 DIIS vectors
                                         safer DIIS on
  Preconditioner : FULL_SINGLE         : diagonalization based
  Precond_solver : DEFAULT
  stepsize       :    0.15000000                  energy_gap     :    0.20000000
  eps_taylor     :   0.10000E-15                  max_taylor     :             4
  ----------------------------------- OT ---------------------------------------

  Step     Update method      Time    Convergence         Total energy    Change
  ------------------------------------------------------------------------------
     1 OT DIIS     0.15E+00    0.6     0.42633161         0.2293875734  2.29E-01
     2 OT DIIS     0.15E+00    0.6     0.26369642        -0.1223311463 -3.52E-01
     3 OT DIIS     0.15E+00    0.6     0.15121881        -0.2443205882 -1.22E-01
     4 OT DIIS     0.15E+00    0.6     0.09043554        -0.2970355159 -5.27E-02
     5 OT DIIS     0.15E+00    0.6     0.03637135        -0.3076682976 -1.06E-02
     6 OT DIIS     0.15E+00    0.6     0.04148890        -0.3078955317 -2.27E-04
     7 OT DIIS     0.15E+00    0.6     0.02341016        -0.3101950946 -2.30E-03
     8 OT DIIS     0.15E+00    0.6     0.01410101        -0.3108751049 -6.80E-04
     9 OT DIIS     0.15E+00    0.6     0.00423033        -0.3112205885 -3.45E-04
    10 OT DIIS     0.15E+00    0.6     0.00330268        -0.3112379487 -1.74E-05
    11 OT DIIS     0.15E+00    0.6     0.00259227        -0.3112491256 -1.12E-05
    12 OT SD       0.15E+00    0.6     0.00237437        -0.3112524024 -3.28E-06
    13 OT SD       0.15E+00    0.6     0.00166515        -0.3112660227 -1.36E-05
    14 OT SD       0.15E+00    0.6     0.00152732        -0.3112738286 -7.81E-06
    15 OT DIIS     0.15E+00    0.6     0.00148909        -0.3112807201 -6.89E-06
    16 OT SD       0.15E+00    0.6     0.00168479        -0.3113479098 -6.72E-05
    17 OT SD       0.15E+00    0.6     0.00156862        -0.3113560152 -8.11E-06
    18 OT SD       0.15E+00    0.6     0.00151595        -0.3113632365 -7.22E-06
    19 OT DIIS     0.15E+00    0.6     0.00147698        -0.3113700213 -6.78E-06
    20 OT DIIS     0.15E+00    0.6     0.00924919        -0.3110078271  3.62E-04
    21 OT DIIS     0.15E+00    0.6     0.00272237        -0.3112145274 -2.07E-04
    22 OT DIIS     0.15E+00    0.6     0.00226641        -0.3113933663 -1.79E-04
    23 OT DIIS     0.15E+00    0.6     0.00085653        -0.3115177997 -1.24E-04
    24 OT DIIS     0.15E+00    0.6     0.00061687        -0.3115191329 -1.33E-06
    25 OT DIIS     0.15E+00    0.6     0.00027289        -0.3115222603 -3.13E-06
    26 OT DIIS     0.15E+00    0.6     0.00005073        -0.3115233265 -1.07E-06
    27 OT DIIS     0.15E+00    0.6     0.00007656        -0.3115232794  4.71E-08
    28 OT DIIS     0.15E+00    0.6     0.00002572        -0.3115233291 -4.96E-08
    29 OT DIIS     0.15E+00    0.7     0.00000291        -0.3115233315 -2.44E-09
    30 OT DIIS     0.15E+00    0.6     0.00000032        -0.3115233315 -1.44E-11

  *** SCF run converged in    30 steps ***


  Electronic density on regular grids:         -2.0000000033       -0.0000000033
  Core density on regular grids:                1.9999999999       -0.0000000001
  Total charge density on r-space grids:       -0.0000000035
  Total charge density g-space grids:          -0.0000000035

  Overlap energy of the core charge distribution:               0.00996092577649
  Self energy of the core charge distribution:                 -2.82094791773878
  Core Hamiltonian energy:                                      1.33469166697595
  Hartree energy:                                               1.85328487190402
  Exchange-correlation energy:                                 -0.68851287846236

  Total energy:                                                -0.31152333154468

  Integrated absolute spin density  :                               2.0000000033
  Ideal and single determinant S**2 :                    2.000000       2.000000

 ENERGY| Total FORCE_EVAL ( QS ) energy [a.u.]:               -0.311523331545003

 -------------------------------------------------------------------------------
 -                                                                             -
 -                                DBCSR STATISTICS                             -
 -                                                                             -
 -------------------------------------------------------------------------------
 COUNTER                                    TOTAL       BLAS       SMM       ACC
 flops     2 x     2 x     2                 8080      29.9%     70.1%      0.0%
 flops     2 x     2 x    10                12000       0.0%    100.0%      0.0%
 flops    10 x     2 x    10                12400       0.0%    100.0%      0.0%
 flops    10 x     2 x     2                14320       0.0%    100.0%      0.0%
 flops     5 x     5 x     2                46800       0.0%    100.0%      0.0%
 flops     5 x     2 x     5                76000       0.0%    100.0%      0.0%
 flops inhomo. stacks                           0       0.0%      0.0%      0.0%
 flops total                       169.600000E+03       1.4%     98.6%      0.0%
 flops max/rank                    169.600000E+03       1.4%     98.6%      0.0%
 matmuls inhomo. stacks                         0       0.0%      0.0%      0.0%
 matmuls total                               2093       7.2%     92.8%      0.0%
 number of processed stacks                  1211      12.5%     87.5%      0.0%
 average stack size                                     1.0       1.8       0.0
 marketing flops                   185.280000E+03
 -------------------------------------------------------------------------------
 # multiplications                           1273
 max memory usage/rank             273.866752E+06
 # max total images/rank                        1
 # max 3D layers                                1
 # MPI messages exchanged                       0
 -------------------------------------------------------------------------------
 -                                                                             -
 -                      DBCSR MESSAGE PASSING PERFORMANCE                      -
 -                                                                             -
 -------------------------------------------------------------------------------
 ROUTINE             CALLS      AVE VOLUME [Bytes]
 MP_Bcast                7                     12.
 MP_Allreduce         6667                      8.
 MP_Alltoall          6318                     35.
 MP_ISend             4906                     34.
 MP_IRecv             4906                     34.
 -------------------------------------------------------------------------------

 -------------------------------------------------------------------------------
 -                                                                             -
 -                                DBM STATISTICS                               -
 -                                                                             -
 -------------------------------------------------------------------------------
    M  x    N  x    K                                          COUNT     PERCENT
 -------------------------------------------------------------------------------

 -------------------------------------------------------------------------------
 -                                                                             -
 -                                GRID STATISTICS                              -
 -                                                                             -
 -------------------------------------------------------------------------------
 LP    KERNEL             BACKEND                              COUNT     PERCENT
 0     collocate ortho    REF                                  32364      36.71%
 0     integrate ortho    REF                                  31320      35.52%
 1     integrate ortho    REF                                  11844      13.43%
 1     collocate ortho    REF                                  11160      12.66%
 2     integrate ortho    REF                                    900       1.02%
 2     collocate ortho    REF                                    558       0.63%
 3     integrate ortho    REF                                     18       0.02%
 0     collocate general  REF                                      2       0.00%
 1     integrate general  REF                                      2       0.00%
 -------------------------------------------------------------------------------

 MEMORY| Estimated peak process memory [MiB]                                 262

 -------------------------------------------------------------------------------
 -                                                                             -
 -                         MESSAGE PASSING PERFORMANCE                         -
 -                                                                             -
 -------------------------------------------------------------------------------

 ROUTINE             CALLS      AVE VOLUME [Bytes]
 MP_Group                4
 MP_Bcast              184                   1431.
 MP_Allreduce         1099                      9.
 MP_Sync                36
 -------------------------------------------------------------------------------


 -------------------------------------------------------------------------------
 -                                                                             -
 -                           R E F E R E N C E S                               -
 -                                                                             -
 -------------------------------------------------------------------------------
 
 CP2K version 2022.1 (Development Version), the CP2K developers group (2022).
 CP2K is freely available from https://www.cp2k.org/ .

 Kuehne,Thomas D.; Iannuzzi,Marcella; Del Ben,Mauro;
 Rybkin,Vladimir V.; Seewald,Patrick; Stein,Frederick; Laino,Teodoro;
 Khaliullin,Rustam Z.; Schuett,Ole; Schiffmann,Florian; Golze,Dorothea;
 Wilhelm,Jan; Chulkov,Sergey; Bani-Hashemian,Mohammad Hossein;
 Weber,Valery; Borstnik,Urban; Taillefumier,Mathieu;
 Jakobovits,Alice Shoshana; Lazzaro,Alfio; Pabst,Hans; Mueller,Tiziano;
 Schade,Robert; Guidon,Manuel; Andermatt,Samuel; Holmberg,Nico;
 Schenter,Gregory K.; Hehn,Anna; Bussy,Augustin; Belleflamme,Fabian;
 Tabacchi,Gloria; Gloess,Andreas; Lass,Michael; Bethune,Iain;
 Mundy,Christopher J.; Plessl,Christian; Watkins,Matt;
 VandeVondele,Joost; Krack,Matthias; Hutter,Juerg. 
 The Journal of Chemical Physics, 152 (19), (2020). 
 CP2K: An electronic structure and molecular dynamics software package -
 Quickstep: Efficient and accurate electronic structure calculations.
 https://doi.org/10.1063/5.0007045

 Schuett, Ole; Messmer, Peter; Hutter, Juerg; VandeVondele, Joost. 
 Electronic Structure Calculations on Graphics Processing Units, John
 Wiley & Sons, Ltd, 173-190 (2016). 
 GPU-Accelerated Sparse Matrix-Matrix Multiplication for
 Linear Scaling Density Functional Theory.
 https://doi.org/10.1002/9781118670712.ch8

 Heinecke, A; Henry, G; Hutchinson, M; Pabst, H. 
 Proceedings of Intl. Supercomputing Conference, 981-991 (2016). 
 LIBXSMM: Accelerating Small Matrix Multiplications
 by Runtime Code Generation.
 https://doi.org/10.1109/SC.2016.83

 Borstnik, U; VandeVondele, J; Weber, V; Hutter, J. 
 PARALLEL COMPUTING, 40 (5-6), 47-58 (2014). 
 Sparse matrix multiplication: The distributed block-compressed sparse
 row library.
 https://doi.org/10.1016/j.parco.2014.03.012

 Hutter, J; Iannuzzi, M; Schiffmann, F; VandeVondele, J. 
 WIREs Comput Mol Sci., 4 (1), 15-25 (2014). 
 CP2K: atomistic simulations of condensed matter systems.
 https://doi.org/10.1002/wcms.1159

 Marek, A; Blum, V; Johanni, R; Havu, V; Lang, B; Auckenthaler, T;
 Heinecke, A; Bungartz, H; Lederer, H. 
 Journal of Physics: Condensed Matter, 26 (21), (2014). 
 The ELPA library: scalable parallel eigenvalue solutions for
 electronic structure
 theory and computational science.
 https://doi.org/10.1088/0953-8984/26/21/213201

 Krack, M. 
 THEORETICAL CHEMISTRY ACCOUNTS, 114 (1-3), 145-152 (2005). 
 Pseudopotentials for H to Kr optimized for gradient-corrected
 exchange-correlation functionals.
 https://doi.org/10.1007/s00214-005-0655-y

 VandeVondele, J; Krack, M; Mohamed, F; Parrinello, M; Chassaing, T;
 Hutter, J. COMPUTER PHYSICS COMMUNICATIONS, 167 (2), 103-128 (2005). 
 QUICKSTEP: Fast and accurate density functional calculations using a
 mixed Gaussian and plane waves approach.
 https://doi.org/10.1016/j.cpc.2004.12.014

 Frigo, M; Johnson, SG. 
 PROCEEDINGS OF THE IEEE, 93 (2), 216-231 (2005). 
 The design and implementation of FFTW3.
 https://doi.org/10.1109/JPROC.2004.840301

 VandeVondele, J; Hutter, J. 
 JOURNAL OF CHEMICAL PHYSICS, 118 (10), 4365-4369 (2003). 
 An efficient orbital transformation method for electronic structure
 calculations.
 https://doi.org/10.1063/1.1543154

 Hartwigsen, C; Goedecker, S; Hutter, J. 
 PHYSICAL REVIEW B, 58 (7), 3641-3662 (1998). 
 Relativistic separable dual-space Gaussian pseudopotentials from H to Rn.
 https://doi.org/10.1103/PhysRevB.58.3641

 Lippert, G; Hutter, J; Parrinello, M. 
 MOLECULAR PHYSICS, 92 (3), 477-487 (1997). 
 A hybrid Gaussian and plane wave density functional scheme.
 https://doi.org/10.1080/002689797170220

 Goedecker, S; Teter, M; Hutter, J. 
 PHYSICAL REVIEW B, 54 (3), 1703-1710 (1996). 
 Separable dual-space Gaussian pseudopotentials.
 https://doi.org/10.1103/PhysRevB.54.1703

 BECKE, AD. PHYSICAL REVIEW A, 38 (6), 3098-3100 (1988). 
 DENSITY-FUNCTIONAL EXCHANGE-ENERGY APPROXIMATION WITH CORRECT
 ASYMPTOTIC-BEHAVIOR.
 https://doi.org/10.1103/PhysRevA.38.3098

 LEE, CT; YANG, WT; PARR, RG. 
 PHYSICAL REVIEW B, 37 (2), 785-789 (1988). 
 DEVELOPMENT OF THE COLLE-SALVETTI CORRELATION-ENERGY FORMULA INTO A
 FUNCTIONAL OF THE ELECTRON-DENSITY.
 https://doi.org/10.1103/PhysRevB.37.785


 -------------------------------------------------------------------------------
 -                                                                             -
 -                                T I M I N G                                  -
 -                                                                             -
 -------------------------------------------------------------------------------
 SUBROUTINE                       CALLS  ASD         SELF TIME        TOTAL TIME
                                MAXIMUM       AVERAGE  MAXIMUM  AVERAGE  MAXIMUM
 CP2K                                 1  1.0    0.006    0.006   18.210   18.210
 qs_forces                            1  2.0    0.000    0.000   18.146   18.146
 qs_energies                          1  3.0    0.000    0.000   17.605   17.605
 scf_env_do_scf                       1  4.0    0.000    0.000   17.541   17.541
 scf_env_do_scf_inner_loop           30  5.0    0.002    0.002   16.957   16.957
 rebuild_ks_matrix                   31  6.9    0.000    0.000   16.857   16.857
 qs_ks_build_kohn_sham_matrix        31  7.9    0.004    0.004   16.857   16.857
 qs_ks_update_qs_env                 31  6.0    0.000    0.000   16.317   16.317
 xc_vxc_pw_create                    93  9.9    0.401    0.401   13.262   13.262
 low_spin_roks                       31  8.9    0.038    0.038   11.564   11.564
 pw_transfer                       3070 11.9    0.146    0.146    9.591    9.591
 fft_wrap_pw1pw2                   3008 12.9    0.018    0.018    9.419    9.419
 fft_wrap_pw1pw2_170               1892 14.3    0.554    0.554    9.020    9.020
 xc_rho_set_and_dset_create          93 10.9    0.829    0.829    8.195    8.195
 xc_pw_derive                      1116 11.9    0.006    0.006    6.744    6.744
 fft3d_s                           3009 14.9    5.137    5.137    5.150    5.150
 qs_vxc_create                       31  8.9    0.000    0.000    4.444    4.444
 xc_pw_divergence                   186 10.9    0.003    0.003    4.409    4.409
 xc_functional_eval                 186 11.9    0.002    0.002    3.684    3.684
 lyp_lsd_eval                        93 12.9    2.962    2.962    2.962    2.962
 calculate_rho_elec                 186  8.9    0.045    0.045    2.580    2.580
 density_rs2pw                      186  9.9    0.004    0.004    2.224    2.224
 pw_scatter_s                      1519 15.1    2.131    2.131    2.131    2.131
 pw_gather_s                       1489 14.8    1.542    1.542    1.542    1.542
 integrate_v_rspace                 186  9.9    0.004    0.004    1.446    1.446
 potential_pw2rs                    186 10.9    0.007    0.007    1.235    1.235
 pw_derive                         1116 12.9    1.012    1.012    1.012    1.012
 qs_rho_update_rho_low               31  6.0    0.000    0.000    0.919    0.919
 xb88_lsd_eval                       93 12.9    0.720    0.720    0.720    0.720
 init_scf_loop                        1  5.0    0.000    0.000    0.584    0.584
 pw_copy                           1768 12.1    0.547    0.547    0.547    0.547
 qs_ks_update_qs_env_forces           1  3.0    0.000    0.000    0.541    0.541
 sum_up_and_integrate                31  8.9    0.040    0.040    0.526    0.526
 pw_axpy                           2109 11.2    0.509    0.509    0.509    0.509
 -------------------------------------------------------------------------------

 The number of warnings for this run is : 1
 
 -------------------------------------------------------------------------------
  **** **** ******  **  PROGRAM ENDED AT                 2022-12-12 18:01:04.914
 ***** ** ***  *** **   PROGRAM RAN ON                           xissand-MS-7A34
 **    ****   ******    PROGRAM RAN BY                                         j
 ***** **    ** ** **   PROGRAM PROCESS ID                                 96454
  **** **  *******  **  PROGRAM STOPPED IN     /home/j/Study/QMComp/HW/3_cp2k/T1
