 DBCSR| CPU Multiplication driver                                           XSMM
 DBCSR| Multrec recursion limit                                              512
 DBCSR| Multiplication stack size                                           1000
 DBCSR| Maximum elements for images                                    UNLIMITED
 DBCSR| Multiplicative factor virtual images                                   1
 DBCSR| Use multiplication densification                                       T
 DBCSR| Multiplication size stacks                                             3
 DBCSR| Use memory pool for CPU allocation                                     F
 DBCSR| Number of 3D layers                                               SINGLE
 DBCSR| Use MPI memory allocation                                              F
 DBCSR| Use RMA algorithm                                                      F
 DBCSR| Use Communication thread                                               T
 DBCSR| Communication thread load                                             87
 DBCSR| MPI: My node id                                                        0
 DBCSR| MPI: Number of nodes                                                   1
 DBCSR| OMP: Current number of threads                                         1
 DBCSR| OMP: Max number of threads                                             1
 DBCSR| Split modifier for TAS multiplication algorithm                  1.0E+00


  **** **** ******  **  PROGRAM STARTED AT               2022-12-12 18:06:39.725
 ***** ** ***  *** **   PROGRAM STARTED ON                       xissand-MS-7A34
 **    ****   ******    PROGRAM STARTED BY                                     j
 ***** **    ** ** **   PROGRAM PROCESS ID                                 98874
  **** **  *******  **  PROGRAM STARTED IN     /home/j/Study/QMComp/HW/3_cp2k/T1

 CP2K| version string:                 CP2K version 2022.1 (Development Version)
 CP2K| source code revision number:                                  git:a213519
 CP2K| cp2kflags: omp fftw3 libxc elpa parallel mpi3 scalapack cosma xsmm spglib
 CP2K|             sirius libvori libbqb libvdwxc
 CP2K| is freely available from                            https://www.cp2k.org/
 CP2K| Program compiled at                       Tue Nov  8 04:05:17 PM MSK 2022
 CP2K| Program compiled on                                       xissand-MS-7A34
 CP2K| Program compiled for                                                local
 CP2K| Data directory path                          /home/j/Study/cp2k/cp2k/data
 CP2K| Input file name                                                  cp2k.inp

 GLOBAL| Force Environment number                                              1
 GLOBAL| Basis set file name                                           BASIS_SET
 GLOBAL| Potential file name                                      GTH_POTENTIALS
 GLOBAL| MM Potential file name                                     MM_POTENTIAL
 GLOBAL| Coordinate file name                                      __STD_INPUT__
 GLOBAL| Method name                                                        CP2K
 GLOBAL| Project name                                                 H2_08_1600
 GLOBAL| Run type                                                   ENERGY_FORCE
 GLOBAL| FFT library                                                       FFTW3
 GLOBAL| Diagonalization library                                            ELPA
 GLOBAL| DGEMM library                                                      BLAS
 GLOBAL| Minimum number of eigenvectors for ELPA usage                        16
 GLOBAL| Orthonormality check for eigenvectors                          DISABLED
 GLOBAL| Matrix multiplication library                                     COSMA
 GLOBAL| All-to-all communication in single precision                          F
 GLOBAL| FFTs using library dependent lengths                                  F
 GLOBAL| Grid backend                                                       AUTO
 GLOBAL| Global print level                                                  LOW
 GLOBAL| MPI I/O enabled                                                       T
 GLOBAL| Total number of message passing processes                             1
 GLOBAL| Number of threads for this process                                    1
 GLOBAL| This output is from process                                           0
 GLOBAL| Stack size for threads created by OpenMP (OMP_STACKSIZE)        default
 GLOBAL| CPU model name                    AMD Ryzen 5 1500X Quad-Core Processor
 GLOBAL| CPUID                                                              1002
 GLOBAL| Compiled for CPUID                                                    0

 *** HINT in environment.F:884 :: The compiler target flags (generic) used ***
 *** to build this binary cannot exploit all extensions of this CPU model  ***
 *** (x86_avx2). Consider compiler target flags as part of FCFLAGS and     ***
 *** CFLAGS (ARCH file).                                                   ***


 MEMORY| system memory details [Kb]
 MEMORY|                        rank 0           min           max       average
 MEMORY| MemTotal             16331996      16331996      16331996      16331996
 MEMORY| MemFree               5956700       5956700       5956700       5956700
 MEMORY| Buffers               1152184       1152184       1152184       1152184
 MEMORY| Cached                4249744       4249744       4249744       4249744
 MEMORY| Slab                   800732        800732        800732        800732
 MEMORY| SReclaimable           628040        628040        628040        628040
 MEMORY| MemLikelyFree        11986668      11986668      11986668      11986668


 GENERATE|  Preliminary Number of Bonds generated:                             0
 GENERATE|  Achieved consistency in connectivity generation.

 *******************************************************************************
 *******************************************************************************
 **                                                                           **
 **     #####                         ##              ##                      **
 **    ##   ##            ##          ##              ##                      **
 **   ##     ##                       ##            ######                    **
 **   ##     ##  ##   ##  ##   #####  ##  ##   ####   ##    #####    #####    **
 **   ##     ##  ##   ##  ##  ##      ## ##   ##      ##   ##   ##  ##   ##   **
 **   ##  ## ##  ##   ##  ##  ##      ####     ###    ##   ######   ######    **
 **    ##  ###   ##   ##  ##  ##      ## ##      ##   ##   ##       ##        **
 **     #######   #####   ##   #####  ##  ##  ####    ##    #####   ##        **
 **           ##                                                    ##        **
 **                                                                           **
 **                                                ... make the atoms dance   **
 **                                                                           **
 **            Copyright (C) by CP2K developers group (2000-2022)             **
 **                      J. Chem. Phys. 152, 194103 (2020)                    **
 **                                                                           **
 *******************************************************************************
 
  **************************************
  restricted calculation cutting corners
  experimental feature, check code      
  **************************************


 TOTAL NUMBERS AND MAXIMUM NUMBERS

  Total number of            - Atomic kinds:                                   1
                             - Atoms:                                          2
                             - Shell sets:                                     4
                             - Shells:                                         6
                             - Primitive Cartesian functions:                 10
                             - Cartesian basis functions:                     10
                             - Spherical basis functions:                     10

  Maximum angular momentum of- Orbital basis functions:                        1
                             - Local part of the GTH pseudopotential:          2


 SCF PARAMETERS         Density guess:                                    ATOMIC
                        --------------------------------------------------------
                        max_scf:                                             400
                        max_scf_history:                                       0
                        max_diis:                                              4
                        --------------------------------------------------------
                        eps_scf:                                        1.00E-06
                        eps_scf_history:                                0.00E+00
                        eps_diis:                                       1.00E-01
                        eps_eigval:                                     1.00E-05
                        --------------------------------------------------------
                        level_shift [a.u.]:                             0.000000
                        --------------------------------------------------------
                        No outer SCF

 Spin 1

 Number of electrons:                                                          2
 Number of occupied orbitals:                                                  2
 Number of molecular orbitals:                                                 2

 Spin 2

 Number of electrons:                                                          0
 Number of occupied orbitals:                                                  0
 Number of molecular orbitals:                                                 0

 Number of orbital functions:                                                 10
 Number of independent orbital functions:                                     10

 Extrapolation method: initial_guess


 SCF WAVEFUNCTION OPTIMIZATION

  ----------------------------------- OT ---------------------------------------
  Allowing for rotations 
  Minimizer      : DIIS                : direct inversion
                                         in the iterative subspace
                                         using   7 DIIS vectors
                                         safer DIIS on
  Preconditioner : FULL_SINGLE         : diagonalization based
  Precond_solver : DEFAULT
  stepsize       :    0.15000000                  energy_gap     :    0.20000000
  eps_taylor     :   0.10000E-15                  max_taylor     :             4
  ----------------------------------- OT ---------------------------------------

  Step     Update method      Time    Convergence         Total energy    Change
  ------------------------------------------------------------------------------
     1 OT DIIS     0.15E+00    0.6     0.10326952        -0.7156322654 -7.16E-01
     2 OT DIIS     0.15E+00    0.6     0.07865818        -0.7437363377 -2.81E-02
     3 OT DIIS     0.15E+00    0.6     0.03557932        -0.7797026413 -3.60E-02
     4 OT SD       0.15E+00    0.6     0.05110508        -0.7852400956 -5.54E-03
     5 OT SD       0.15E+00    0.6     0.04608173        -0.7925976273 -7.36E-03
     6 OT SD       0.15E+00    0.6     0.04461657        -0.7988219330 -6.22E-03
     7 OT SD       0.15E+00    0.5     0.04457676        -0.8047752881 -5.95E-03
     8 OT SD       0.15E+00    0.6     0.04524709        -0.8107611601 -5.99E-03
     9 OT DIIS     0.15E+00    0.6     0.04572024        -0.8169500318 -6.19E-03
    10 OT DIIS     0.15E+00    0.6     0.02911068        -0.8640662818 -4.71E-02
    11 OT DIIS     0.15E+00    0.6     0.04345809        -0.8641790502 -1.13E-04
    12 OT SD       0.15E+00    0.6     0.04873997        -0.8301734419  3.40E-02
    13 OT SD       0.15E+00    0.6     0.04484678        -0.8369877684 -6.81E-03
    14 OT DIIS     0.15E+00    0.6     0.04148660        -0.8427919582 -5.80E-03
    15 OT DIIS     0.15E+00    0.6     0.04101198        -0.8589569076 -1.62E-02
    16 OT DIIS     0.15E+00    0.6     0.12744309        -0.7932844396  6.57E-02
    17 OT DIIS     0.15E+00    0.5     0.04759560        -0.8625259766 -6.92E-02
    18 OT DIIS     0.15E+00    0.6     0.02283714        -0.8690221041 -6.50E-03
    19 OT DIIS     0.15E+00    0.6     0.01973035        -0.8695112587 -4.89E-04
    20 OT DIIS     0.15E+00    0.6     0.02005538        -0.8694057744  1.05E-04
    21 OT DIIS     0.15E+00    0.6     0.00972815        -0.8705129334 -1.11E-03
    22 OT DIIS     0.15E+00    0.6     0.00300661        -0.8710187643 -5.06E-04
    23 OT DIIS     0.15E+00    0.6     0.00246284        -0.8710319011 -1.31E-05
    24 OT DIIS     0.15E+00    0.6     0.00127052        -0.8710443744 -1.25E-05
    25 OT DIIS     0.15E+00    0.6     0.00012245        -0.8710552727 -1.09E-05
    26 OT DIIS     0.15E+00    0.6     0.00003962        -0.8710553276 -5.49E-08
    27 OT DIIS     0.15E+00    0.6     0.00001292        -0.8710553336 -5.97E-09
    28 OT DIIS     0.15E+00    0.6     0.00001061        -0.8710553335  8.60E-11
    29 OT DIIS     0.15E+00    0.6     0.00000170        -0.8710553343 -8.40E-10
    30 OT DIIS     0.15E+00    0.6     0.00000034        -0.8710553343 -1.25E-11

  *** SCF run converged in    30 steps ***


  Electronic density on regular grids:         -1.9999999998        0.0000000002
  Core density on regular grids:                1.9999999999       -0.0000000001
  Total charge density on r-space grids:        0.0000000001
  Total charge density g-space grids:           0.0000000001

  Overlap energy of the core charge distribution:               0.00000000000116
  Self energy of the core charge distribution:                 -2.82094791773878
  Core Hamiltonian energy:                                      1.12691965408731
  Hartree energy:                                               1.50062117640296
  Exchange-correlation energy:                                 -0.67764824709785

  Total energy:                                                -0.87105533434520

  Integrated absolute spin density  :                               1.9999999998
  Ideal and single determinant S**2 :                    2.000000       2.000000

 ENERGY| Total FORCE_EVAL ( QS ) energy [a.u.]:               -0.871055334346546

 -------------------------------------------------------------------------------
 -                                                                             -
 -                                DBCSR STATISTICS                             -
 -                                                                             -
 -------------------------------------------------------------------------------
 COUNTER                                    TOTAL       BLAS       SMM       ACC
 flops     2 x     2 x     2                 8192      29.5%     70.5%      0.0%
 flops     2 x     2 x    10                12000       0.0%    100.0%      0.0%
 flops    10 x     2 x    10                12400       0.0%    100.0%      0.0%
 flops    10 x     2 x     2                14320       0.0%    100.0%      0.0%
 flops     5 x     5 x     2                46800       0.0%    100.0%      0.0%
 flops     5 x     2 x     5                76000       0.0%    100.0%      0.0%
 flops inhomo. stacks                           0       0.0%      0.0%      0.0%
 flops total                       169.712000E+03       1.4%     98.6%      0.0%
 flops max/rank                    169.712000E+03       1.4%     98.6%      0.0%
 matmuls inhomo. stacks                         0       0.0%      0.0%      0.0%
 matmuls total                               2100       7.2%     92.8%      0.0%
 number of processed stacks                  1218      12.4%     87.6%      0.0%
 average stack size                                     1.0       1.8       0.0
 marketing flops                   185.392000E+03
 -------------------------------------------------------------------------------
 # multiplications                           1280
 max memory usage/rank             273.424384E+06
 # max total images/rank                        1
 # max 3D layers                                1
 # MPI messages exchanged                       0
 -------------------------------------------------------------------------------
 -                                                                             -
 -                      DBCSR MESSAGE PASSING PERFORMANCE                      -
 -                                                                             -
 -------------------------------------------------------------------------------
 ROUTINE             CALLS      AVE VOLUME [Bytes]
 MP_Bcast                7                     12.
 MP_Allreduce         6702                      8.
 MP_Alltoall          6320                     35.
 MP_ISend             4934                     34.
 MP_IRecv             4934                     34.
 -------------------------------------------------------------------------------

 -------------------------------------------------------------------------------
 -                                                                             -
 -                                DBM STATISTICS                               -
 -                                                                             -
 -------------------------------------------------------------------------------
    M  x    N  x    K                                          COUNT     PERCENT
 -------------------------------------------------------------------------------

 -------------------------------------------------------------------------------
 -                                                                             -
 -                                GRID STATISTICS                              -
 -                                                                             -
 -------------------------------------------------------------------------------
 LP    KERNEL             BACKEND                              COUNT     PERCENT
 0     collocate ortho    REF                                  33294      36.53%
 0     integrate ortho    REF                                  32220      35.35%
 1     integrate ortho    REF                                  12234      13.42%
 1     collocate ortho    REF                                  11532      12.65%
 2     integrate ortho    REF                                   1092       1.20%
 2     collocate ortho    REF                                    744       0.82%
 3     integrate ortho    REF                                     24       0.03%
 0     collocate general  REF                                      2       0.00%
 1     integrate general  REF                                      2       0.00%
 -------------------------------------------------------------------------------

 MEMORY| Estimated peak process memory [MiB]                                 261

 -------------------------------------------------------------------------------
 -                                                                             -
 -                         MESSAGE PASSING PERFORMANCE                         -
 -                                                                             -
 -------------------------------------------------------------------------------

 ROUTINE             CALLS      AVE VOLUME [Bytes]
 MP_Group                4
 MP_Bcast              176                   1495.
 MP_Allreduce         1077                      9.
 MP_Sync                35
 -------------------------------------------------------------------------------


 -------------------------------------------------------------------------------
 -                                                                             -
 -                           R E F E R E N C E S                               -
 -                                                                             -
 -------------------------------------------------------------------------------
 
 CP2K version 2022.1 (Development Version), the CP2K developers group (2022).
 CP2K is freely available from https://www.cp2k.org/ .

 Kuehne,Thomas D.; Iannuzzi,Marcella; Del Ben,Mauro;
 Rybkin,Vladimir V.; Seewald,Patrick; Stein,Frederick; Laino,Teodoro;
 Khaliullin,Rustam Z.; Schuett,Ole; Schiffmann,Florian; Golze,Dorothea;
 Wilhelm,Jan; Chulkov,Sergey; Bani-Hashemian,Mohammad Hossein;
 Weber,Valery; Borstnik,Urban; Taillefumier,Mathieu;
 Jakobovits,Alice Shoshana; Lazzaro,Alfio; Pabst,Hans; Mueller,Tiziano;
 Schade,Robert; Guidon,Manuel; Andermatt,Samuel; Holmberg,Nico;
 Schenter,Gregory K.; Hehn,Anna; Bussy,Augustin; Belleflamme,Fabian;
 Tabacchi,Gloria; Gloess,Andreas; Lass,Michael; Bethune,Iain;
 Mundy,Christopher J.; Plessl,Christian; Watkins,Matt;
 VandeVondele,Joost; Krack,Matthias; Hutter,Juerg. 
 The Journal of Chemical Physics, 152 (19), (2020). 
 CP2K: An electronic structure and molecular dynamics software package -
 Quickstep: Efficient and accurate electronic structure calculations.
 https://doi.org/10.1063/5.0007045

 Schuett, Ole; Messmer, Peter; Hutter, Juerg; VandeVondele, Joost. 
 Electronic Structure Calculations on Graphics Processing Units, John
 Wiley & Sons, Ltd, 173-190 (2016). 
 GPU-Accelerated Sparse Matrix-Matrix Multiplication for
 Linear Scaling Density Functional Theory.
 https://doi.org/10.1002/9781118670712.ch8

 Heinecke, A; Henry, G; Hutchinson, M; Pabst, H. 
 Proceedings of Intl. Supercomputing Conference, 981-991 (2016). 
 LIBXSMM: Accelerating Small Matrix Multiplications
 by Runtime Code Generation.
 https://doi.org/10.1109/SC.2016.83

 Borstnik, U; VandeVondele, J; Weber, V; Hutter, J. 
 PARALLEL COMPUTING, 40 (5-6), 47-58 (2014). 
 Sparse matrix multiplication: The distributed block-compressed sparse
 row library.
 https://doi.org/10.1016/j.parco.2014.03.012

 Hutter, J; Iannuzzi, M; Schiffmann, F; VandeVondele, J. 
 WIREs Comput Mol Sci., 4 (1), 15-25 (2014). 
 CP2K: atomistic simulations of condensed matter systems.
 https://doi.org/10.1002/wcms.1159

 Marek, A; Blum, V; Johanni, R; Havu, V; Lang, B; Auckenthaler, T;
 Heinecke, A; Bungartz, H; Lederer, H. 
 Journal of Physics: Condensed Matter, 26 (21), (2014). 
 The ELPA library: scalable parallel eigenvalue solutions for
 electronic structure
 theory and computational science.
 https://doi.org/10.1088/0953-8984/26/21/213201

 Krack, M. 
 THEORETICAL CHEMISTRY ACCOUNTS, 114 (1-3), 145-152 (2005). 
 Pseudopotentials for H to Kr optimized for gradient-corrected
 exchange-correlation functionals.
 https://doi.org/10.1007/s00214-005-0655-y

 VandeVondele, J; Krack, M; Mohamed, F; Parrinello, M; Chassaing, T;
 Hutter, J. COMPUTER PHYSICS COMMUNICATIONS, 167 (2), 103-128 (2005). 
 QUICKSTEP: Fast and accurate density functional calculations using a
 mixed Gaussian and plane waves approach.
 https://doi.org/10.1016/j.cpc.2004.12.014

 Frigo, M; Johnson, SG. 
 PROCEEDINGS OF THE IEEE, 93 (2), 216-231 (2005). 
 The design and implementation of FFTW3.
 https://doi.org/10.1109/JPROC.2004.840301

 VandeVondele, J; Hutter, J. 
 JOURNAL OF CHEMICAL PHYSICS, 118 (10), 4365-4369 (2003). 
 An efficient orbital transformation method for electronic structure
 calculations.
 https://doi.org/10.1063/1.1543154

 Hartwigsen, C; Goedecker, S; Hutter, J. 
 PHYSICAL REVIEW B, 58 (7), 3641-3662 (1998). 
 Relativistic separable dual-space Gaussian pseudopotentials from H to Rn.
 https://doi.org/10.1103/PhysRevB.58.3641

 Lippert, G; Hutter, J; Parrinello, M. 
 MOLECULAR PHYSICS, 92 (3), 477-487 (1997). 
 A hybrid Gaussian and plane wave density functional scheme.
 https://doi.org/10.1080/002689797170220

 Goedecker, S; Teter, M; Hutter, J. 
 PHYSICAL REVIEW B, 54 (3), 1703-1710 (1996). 
 Separable dual-space Gaussian pseudopotentials.
 https://doi.org/10.1103/PhysRevB.54.1703

 BECKE, AD. PHYSICAL REVIEW A, 38 (6), 3098-3100 (1988). 
 DENSITY-FUNCTIONAL EXCHANGE-ENERGY APPROXIMATION WITH CORRECT
 ASYMPTOTIC-BEHAVIOR.
 https://doi.org/10.1103/PhysRevA.38.3098

 LEE, CT; YANG, WT; PARR, RG. 
 PHYSICAL REVIEW B, 37 (2), 785-789 (1988). 
 DEVELOPMENT OF THE COLLE-SALVETTI CORRELATION-ENERGY FORMULA INTO A
 FUNCTIONAL OF THE ELECTRON-DENSITY.
 https://doi.org/10.1103/PhysRevB.37.785


 -------------------------------------------------------------------------------
 -                                                                             -
 -                                T I M I N G                                  -
 -                                                                             -
 -------------------------------------------------------------------------------
 SUBROUTINE                       CALLS  ASD         SELF TIME        TOTAL TIME
                                MAXIMUM       AVERAGE  MAXIMUM  AVERAGE  MAXIMUM
 CP2K                                 1  1.0    0.008    0.008   18.464   18.464
 qs_forces                            1  2.0    0.000    0.000   18.403   18.403
 qs_energies                          1  3.0    0.000    0.000   17.881   17.881
 scf_env_do_scf                       1  4.0    0.000    0.000   17.817   17.817
 scf_env_do_scf_inner_loop           30  5.0    0.002    0.002   17.205   17.205
 rebuild_ks_matrix                   31  6.9    0.000    0.000   17.105   17.105
 qs_ks_build_kohn_sham_matrix        31  7.9    0.003    0.003   17.105   17.105
 qs_ks_update_qs_env                 31  6.0    0.000    0.000   16.585   16.585
 xc_vxc_pw_create                    93  9.9    0.387    0.387   13.467   13.467
 low_spin_roks                       31  8.9    0.035    0.035   11.871   11.871
 pw_transfer                       3070 11.9    0.154    0.154    9.869    9.869
 fft_wrap_pw1pw2                   3008 12.9    0.019    0.019    9.691    9.691
 fft_wrap_pw1pw2_170               1892 14.3    0.541    0.541    9.370    9.370
 xc_rho_set_and_dset_create          93 10.9    0.824    0.824    8.301    8.301
 xc_pw_derive                      1116 11.9    0.006    0.006    6.881    6.881
 fft3d_s                           3009 14.9    5.256    5.256    5.267    5.267
 xc_pw_divergence                   186 10.9    0.003    0.003    4.534    4.534
 qs_vxc_create                       31  8.9    0.000    0.000    4.400    4.400
 xc_functional_eval                 186 11.9    0.002    0.002    3.792    3.792
 lyp_lsd_eval                        93 12.9    3.072    3.072    3.072    3.072
 calculate_rho_elec                 186  8.9    0.046    0.046    2.611    2.611
 density_rs2pw                      186  9.9    0.005    0.005    2.250    2.250
 pw_scatter_s                      1519 15.1    2.132    2.132    2.132    2.132
 pw_gather_s                       1489 14.8    1.708    1.708    1.708    1.708
 integrate_v_rspace                 186  9.9    0.004    0.004    1.459    1.459
 potential_pw2rs                    186 10.9    0.007    0.007    1.236    1.236
 pw_derive                         1116 12.9    0.949    0.949    0.949    0.949
 qs_rho_update_rho_low               31  6.0    0.000    0.000    0.908    0.908
 xb88_lsd_eval                       93 12.9    0.719    0.719    0.719    0.719
 init_scf_loop                        1  5.0    0.000    0.000    0.612    0.612
 sum_up_and_integrate                31  8.9    0.034    0.034    0.523    0.523
 qs_ks_update_qs_env_forces           1  3.0    0.000    0.000    0.521    0.521
 pw_copy                           1768 12.1    0.520    0.520    0.520    0.520
 pw_axpy                           2109 11.2    0.470    0.470    0.470    0.470
 dbcsr_multiply_generic            1280 10.7    0.024    0.024    0.387    0.387
 -------------------------------------------------------------------------------

 The number of warnings for this run is : 0
 
 -------------------------------------------------------------------------------
  **** **** ******  **  PROGRAM ENDED AT                 2022-12-12 18:06:58.706
 ***** ** ***  *** **   PROGRAM RAN ON                           xissand-MS-7A34
 **    ****   ******    PROGRAM RAN BY                                         j
 ***** **    ** ** **   PROGRAM PROCESS ID                                 98874
  **** **  *******  **  PROGRAM STOPPED IN     /home/j/Study/QMComp/HW/3_cp2k/T1
