 DBCSR| CPU Multiplication driver                                           XSMM
 DBCSR| Multrec recursion limit                                              512
 DBCSR| Multiplication stack size                                           1000
 DBCSR| Maximum elements for images                                    UNLIMITED
 DBCSR| Multiplicative factor virtual images                                   1
 DBCSR| Use multiplication densification                                       T
 DBCSR| Multiplication size stacks                                             3
 DBCSR| Use memory pool for CPU allocation                                     F
 DBCSR| Number of 3D layers                                               SINGLE
 DBCSR| Use MPI memory allocation                                              F
 DBCSR| Use RMA algorithm                                                      F
 DBCSR| Use Communication thread                                               T
 DBCSR| Communication thread load                                             87
 DBCSR| MPI: My node id                                                        0
 DBCSR| MPI: Number of nodes                                                   1
 DBCSR| OMP: Current number of threads                                         1
 DBCSR| OMP: Max number of threads                                             1
 DBCSR| Split modifier for TAS multiplication algorithm                  1.0E+00


  **** **** ******  **  PROGRAM STARTED AT               2022-12-12 18:07:41.347
 ***** ** ***  *** **   PROGRAM STARTED ON                       xissand-MS-7A34
 **    ****   ******    PROGRAM STARTED BY                                     j
 ***** **    ** ** **   PROGRAM PROCESS ID                                 99152
  **** **  *******  **  PROGRAM STARTED IN     /home/j/Study/QMComp/HW/3_cp2k/T1

 CP2K| version string:                 CP2K version 2022.1 (Development Version)
 CP2K| source code revision number:                                  git:a213519
 CP2K| cp2kflags: omp fftw3 libxc elpa parallel mpi3 scalapack cosma xsmm spglib
 CP2K|             sirius libvori libbqb libvdwxc
 CP2K| is freely available from                            https://www.cp2k.org/
 CP2K| Program compiled at                       Tue Nov  8 04:05:17 PM MSK 2022
 CP2K| Program compiled on                                       xissand-MS-7A34
 CP2K| Program compiled for                                                local
 CP2K| Data directory path                          /home/j/Study/cp2k/cp2k/data
 CP2K| Input file name                                                  cp2k.inp

 GLOBAL| Force Environment number                                              1
 GLOBAL| Basis set file name                                           BASIS_SET
 GLOBAL| Potential file name                                      GTH_POTENTIALS
 GLOBAL| MM Potential file name                                     MM_POTENTIAL
 GLOBAL| Coordinate file name                                      __STD_INPUT__
 GLOBAL| Method name                                                        CP2K
 GLOBAL| Project name                                                 H2_08_1600
 GLOBAL| Run type                                                   ENERGY_FORCE
 GLOBAL| FFT library                                                       FFTW3
 GLOBAL| Diagonalization library                                            ELPA
 GLOBAL| DGEMM library                                                      BLAS
 GLOBAL| Minimum number of eigenvectors for ELPA usage                        16
 GLOBAL| Orthonormality check for eigenvectors                          DISABLED
 GLOBAL| Matrix multiplication library                                     COSMA
 GLOBAL| All-to-all communication in single precision                          F
 GLOBAL| FFTs using library dependent lengths                                  F
 GLOBAL| Grid backend                                                       AUTO
 GLOBAL| Global print level                                                  LOW
 GLOBAL| MPI I/O enabled                                                       T
 GLOBAL| Total number of message passing processes                             1
 GLOBAL| Number of threads for this process                                    1
 GLOBAL| This output is from process                                           0
 GLOBAL| Stack size for threads created by OpenMP (OMP_STACKSIZE)        default
 GLOBAL| CPU model name                    AMD Ryzen 5 1500X Quad-Core Processor
 GLOBAL| CPUID                                                              1002
 GLOBAL| Compiled for CPUID                                                    0

 *** HINT in environment.F:884 :: The compiler target flags (generic) used ***
 *** to build this binary cannot exploit all extensions of this CPU model  ***
 *** (x86_avx2). Consider compiler target flags as part of FCFLAGS and     ***
 *** CFLAGS (ARCH file).                                                   ***


 MEMORY| system memory details [Kb]
 MEMORY|                        rank 0           min           max       average
 MEMORY| MemTotal             16331996      16331996      16331996      16331996
 MEMORY| MemFree               5904016       5904016       5904016       5904016
 MEMORY| Buffers               1152564       1152564       1152564       1152564
 MEMORY| Cached                4249888       4249888       4249888       4249888
 MEMORY| Slab                   801168        801168        801168        801168
 MEMORY| SReclaimable           628092        628092        628092        628092
 MEMORY| MemLikelyFree        11934560      11934560      11934560      11934560


 GENERATE|  Preliminary Number of Bonds generated:                             0
 GENERATE|  Achieved consistency in connectivity generation.

 *******************************************************************************
 *******************************************************************************
 **                                                                           **
 **     #####                         ##              ##                      **
 **    ##   ##            ##          ##              ##                      **
 **   ##     ##                       ##            ######                    **
 **   ##     ##  ##   ##  ##   #####  ##  ##   ####   ##    #####    #####    **
 **   ##     ##  ##   ##  ##  ##      ## ##   ##      ##   ##   ##  ##   ##   **
 **   ##  ## ##  ##   ##  ##  ##      ####     ###    ##   ######   ######    **
 **    ##  ###   ##   ##  ##  ##      ## ##      ##   ##   ##       ##        **
 **     #######   #####   ##   #####  ##  ##  ####    ##    #####   ##        **
 **           ##                                                    ##        **
 **                                                                           **
 **                                                ... make the atoms dance   **
 **                                                                           **
 **            Copyright (C) by CP2K developers group (2000-2022)             **
 **                      J. Chem. Phys. 152, 194103 (2020)                    **
 **                                                                           **
 *******************************************************************************
 
  **************************************
  restricted calculation cutting corners
  experimental feature, check code      
  **************************************


 TOTAL NUMBERS AND MAXIMUM NUMBERS

  Total number of            - Atomic kinds:                                   1
                             - Atoms:                                          2
                             - Shell sets:                                     4
                             - Shells:                                         6
                             - Primitive Cartesian functions:                 10
                             - Cartesian basis functions:                     10
                             - Spherical basis functions:                     10

  Maximum angular momentum of- Orbital basis functions:                        1
                             - Local part of the GTH pseudopotential:          2


 SCF PARAMETERS         Density guess:                                    ATOMIC
                        --------------------------------------------------------
                        max_scf:                                             400
                        max_scf_history:                                       0
                        max_diis:                                              4
                        --------------------------------------------------------
                        eps_scf:                                        1.00E-06
                        eps_scf_history:                                0.00E+00
                        eps_diis:                                       1.00E-01
                        eps_eigval:                                     1.00E-05
                        --------------------------------------------------------
                        level_shift [a.u.]:                             0.000000
                        --------------------------------------------------------
                        No outer SCF

 Spin 1

 Number of electrons:                                                          2
 Number of occupied orbitals:                                                  2
 Number of molecular orbitals:                                                 2

 Spin 2

 Number of electrons:                                                          0
 Number of occupied orbitals:                                                  0
 Number of molecular orbitals:                                                 0

 Number of orbital functions:                                                 10
 Number of independent orbital functions:                                     10

 Extrapolation method: initial_guess


 SCF WAVEFUNCTION OPTIMIZATION

  ----------------------------------- OT ---------------------------------------
  Allowing for rotations 
  Minimizer      : DIIS                : direct inversion
                                         in the iterative subspace
                                         using   7 DIIS vectors
                                         safer DIIS on
  Preconditioner : FULL_SINGLE         : diagonalization based
  Precond_solver : DEFAULT
  stepsize       :    0.15000000                  energy_gap     :    0.20000000
  eps_taylor     :   0.10000E-15                  max_taylor     :             4
  ----------------------------------- OT ---------------------------------------

  Step     Update method      Time    Convergence         Total energy    Change
  ------------------------------------------------------------------------------
     1 OT DIIS     0.15E+00    0.6     0.07767447        -0.7618437783 -7.62E-01
     2 OT DIIS     0.15E+00    0.6     0.06084674        -0.7779165115 -1.61E-02
     3 OT DIIS     0.15E+00    0.6     0.03416343        -0.8020971400 -2.42E-02
     4 OT SD       0.15E+00    0.6     0.05380167        -0.8143803661 -1.23E-02
     5 OT SD       0.15E+00    0.6     0.05099505        -0.8227687307 -8.39E-03
     6 OT SD       0.15E+00    0.6     0.05042716        -0.8304944823 -7.73E-03
     7 OT SD       0.15E+00    0.6     0.05086485        -0.8381272288 -7.63E-03
     8 OT SD       0.15E+00    0.6     0.05140395        -0.8459445763 -7.82E-03
     9 OT SD       0.15E+00    0.6     0.05078333        -0.8538312219 -7.89E-03
    10 OT DIIS     0.15E+00    0.6     0.04942824        -0.8614733770 -7.64E-03
    11 OT DIIS     0.15E+00    0.6     0.05738902        -0.8685538898 -7.08E-03
    12 OT DIIS     0.15E+00    0.6     0.04483947        -0.8989673093 -3.04E-02
    13 OT SD       0.15E+00    0.6     0.04697690        -0.8990063669 -3.91E-05
    14 OT DIIS     0.15E+00    0.6     0.02828287        -0.9042823474 -5.28E-03
    15 OT DIIS     0.15E+00    0.6     0.05648832        -0.8824507239  2.18E-02
    16 OT DIIS     0.15E+00    0.6     0.03958770        -0.8963854353 -1.39E-02
    17 OT SD       0.15E+00    0.6     0.00974615        -0.9072945608 -1.09E-02
    18 OT DIIS     0.15E+00    0.6     0.00525821        -0.9075132269 -2.19E-04
    19 OT DIIS     0.15E+00    0.6     0.00354565        -0.9075585138 -4.53E-05
    20 OT DIIS     0.15E+00    0.6     0.00254422        -0.9075807888 -2.23E-05
    21 OT DIIS     0.15E+00    0.6     0.00093047        -0.9076109263 -3.01E-05
    22 OT DIIS     0.15E+00    0.6     0.00059122        -0.9076149850 -4.06E-06
    23 OT DIIS     0.15E+00    0.5     0.00012879        -0.9076162707 -1.29E-06
    24 OT DIIS     0.15E+00    0.6     0.00005422        -0.9076164144 -1.44E-07
    25 OT DIIS     0.15E+00    0.6     0.00001680        -0.9076164340 -1.96E-08
    26 OT DIIS     0.15E+00    0.6     0.00000762        -0.9076164345 -5.27E-10
    27 OT DIIS     0.15E+00    0.6     0.00000322        -0.9076164350 -4.90E-10
    28 OT DIIS     0.15E+00    0.6     0.00000055        -0.9076164352 -1.51E-10

  *** SCF run converged in    28 steps ***


  Electronic density on regular grids:         -1.9999999997        0.0000000003
  Core density on regular grids:                1.9999999999       -0.0000000001
  Total charge density on r-space grids:        0.0000000002
  Total charge density g-space grids:           0.0000000002

  Overlap energy of the core charge distribution:               0.00000000000000
  Self energy of the core charge distribution:                 -2.82094791773878
  Core Hamiltonian energy:                                      1.09275642453040
  Hartree energy:                                               1.49413836246771
  Exchange-correlation energy:                                 -0.67356330444234

  Total energy:                                                -0.90761643518301

  Integrated absolute spin density  :                               1.9999999997
  Ideal and single determinant S**2 :                    2.000000       2.000000

 ENERGY| Total FORCE_EVAL ( QS ) energy [a.u.]:               -0.907616435212444

 -------------------------------------------------------------------------------
 -                                                                             -
 -                                DBCSR STATISTICS                             -
 -                                                                             -
 -------------------------------------------------------------------------------
 COUNTER                                    TOTAL       BLAS       SMM       ACC
 flops     2 x     2 x     2                 9568      23.6%     76.4%      0.0%
 flops     2 x     2 x    10                11200       0.0%    100.0%      0.0%
 flops    10 x     2 x    10                11600       0.0%    100.0%      0.0%
 flops    10 x     2 x     2                13360       0.0%    100.0%      0.0%
 flops     5 x     5 x     2                43800       0.0%    100.0%      0.0%
 flops     5 x     2 x     5                71200       0.0%    100.0%      0.0%
 flops inhomo. stacks                           0       0.0%      0.0%      0.0%
 flops total                       160.728000E+03       1.4%     98.6%      0.0%
 flops max/rank                    160.728000E+03       1.4%     98.6%      0.0%
 matmuls inhomo. stacks                         0       0.0%      0.0%      0.0%
 matmuls total                               2084       6.8%     93.2%      0.0%
 number of processed stacks                  1258      11.2%     88.8%      0.0%
 average stack size                                     1.0       1.7       0.0
 marketing flops                   175.408000E+03
 -------------------------------------------------------------------------------
 # multiplications                           1316
 max memory usage/rank             273.420288E+06
 # max total images/rank                        1
 # max 3D layers                                1
 # MPI messages exchanged                       0
 -------------------------------------------------------------------------------
 -                                                                             -
 -                      DBCSR MESSAGE PASSING PERFORMANCE                      -
 -                                                                             -
 -------------------------------------------------------------------------------
 ROUTINE             CALLS      AVE VOLUME [Bytes]
 MP_Bcast                7                     12.
 MP_Allreduce         6860                      8.
 MP_Alltoall          5941                     34.
 MP_ISend             5090                     33.
 MP_IRecv             5090                     33.
 -------------------------------------------------------------------------------

 -------------------------------------------------------------------------------
 -                                                                             -
 -                                DBM STATISTICS                               -
 -                                                                             -
 -------------------------------------------------------------------------------
    M  x    N  x    K                                          COUNT     PERCENT
 -------------------------------------------------------------------------------

 -------------------------------------------------------------------------------
 -                                                                             -
 -                                GRID STATISTICS                              -
 -                                                                             -
 -------------------------------------------------------------------------------
 LP    KERNEL             BACKEND                              COUNT     PERCENT
 0     collocate ortho    REF                                  32364      35.77%
 0     integrate ortho    REF                                  31248      34.53%
 1     integrate ortho    REF                                  12876      14.23%
 1     collocate ortho    REF                                  12180      13.46%
 2     integrate ortho    REF                                   1092       1.21%
 2     collocate ortho    REF                                    696       0.77%
 3     integrate ortho    REF                                     24       0.03%
 0     collocate general  REF                                      2       0.00%
 1     integrate general  REF                                      2       0.00%
 -------------------------------------------------------------------------------

 MEMORY| Estimated peak process memory [MiB]                                 261

 -------------------------------------------------------------------------------
 -                                                                             -
 -                         MESSAGE PASSING PERFORMANCE                         -
 -                                                                             -
 -------------------------------------------------------------------------------

 ROUTINE             CALLS      AVE VOLUME [Bytes]
 MP_Group                4
 MP_Bcast              168                   1466.
 MP_Allreduce         1005                      9.
 MP_Sync                15
 -------------------------------------------------------------------------------


 -------------------------------------------------------------------------------
 -                                                                             -
 -                           R E F E R E N C E S                               -
 -                                                                             -
 -------------------------------------------------------------------------------
 
 CP2K version 2022.1 (Development Version), the CP2K developers group (2022).
 CP2K is freely available from https://www.cp2k.org/ .

 Kuehne,Thomas D.; Iannuzzi,Marcella; Del Ben,Mauro;
 Rybkin,Vladimir V.; Seewald,Patrick; Stein,Frederick; Laino,Teodoro;
 Khaliullin,Rustam Z.; Schuett,Ole; Schiffmann,Florian; Golze,Dorothea;
 Wilhelm,Jan; Chulkov,Sergey; Bani-Hashemian,Mohammad Hossein;
 Weber,Valery; Borstnik,Urban; Taillefumier,Mathieu;
 Jakobovits,Alice Shoshana; Lazzaro,Alfio; Pabst,Hans; Mueller,Tiziano;
 Schade,Robert; Guidon,Manuel; Andermatt,Samuel; Holmberg,Nico;
 Schenter,Gregory K.; Hehn,Anna; Bussy,Augustin; Belleflamme,Fabian;
 Tabacchi,Gloria; Gloess,Andreas; Lass,Michael; Bethune,Iain;
 Mundy,Christopher J.; Plessl,Christian; Watkins,Matt;
 VandeVondele,Joost; Krack,Matthias; Hutter,Juerg. 
 The Journal of Chemical Physics, 152 (19), (2020). 
 CP2K: An electronic structure and molecular dynamics software package -
 Quickstep: Efficient and accurate electronic structure calculations.
 https://doi.org/10.1063/5.0007045

 Schuett, Ole; Messmer, Peter; Hutter, Juerg; VandeVondele, Joost. 
 Electronic Structure Calculations on Graphics Processing Units, John
 Wiley & Sons, Ltd, 173-190 (2016). 
 GPU-Accelerated Sparse Matrix-Matrix Multiplication for
 Linear Scaling Density Functional Theory.
 https://doi.org/10.1002/9781118670712.ch8

 Heinecke, A; Henry, G; Hutchinson, M; Pabst, H. 
 Proceedings of Intl. Supercomputing Conference, 981-991 (2016). 
 LIBXSMM: Accelerating Small Matrix Multiplications
 by Runtime Code Generation.
 https://doi.org/10.1109/SC.2016.83

 Borstnik, U; VandeVondele, J; Weber, V; Hutter, J. 
 PARALLEL COMPUTING, 40 (5-6), 47-58 (2014). 
 Sparse matrix multiplication: The distributed block-compressed sparse
 row library.
 https://doi.org/10.1016/j.parco.2014.03.012

 Hutter, J; Iannuzzi, M; Schiffmann, F; VandeVondele, J. 
 WIREs Comput Mol Sci., 4 (1), 15-25 (2014). 
 CP2K: atomistic simulations of condensed matter systems.
 https://doi.org/10.1002/wcms.1159

 Marek, A; Blum, V; Johanni, R; Havu, V; Lang, B; Auckenthaler, T;
 Heinecke, A; Bungartz, H; Lederer, H. 
 Journal of Physics: Condensed Matter, 26 (21), (2014). 
 The ELPA library: scalable parallel eigenvalue solutions for
 electronic structure
 theory and computational science.
 https://doi.org/10.1088/0953-8984/26/21/213201

 Krack, M. 
 THEORETICAL CHEMISTRY ACCOUNTS, 114 (1-3), 145-152 (2005). 
 Pseudopotentials for H to Kr optimized for gradient-corrected
 exchange-correlation functionals.
 https://doi.org/10.1007/s00214-005-0655-y

 VandeVondele, J; Krack, M; Mohamed, F; Parrinello, M; Chassaing, T;
 Hutter, J. COMPUTER PHYSICS COMMUNICATIONS, 167 (2), 103-128 (2005). 
 QUICKSTEP: Fast and accurate density functional calculations using a
 mixed Gaussian and plane waves approach.
 https://doi.org/10.1016/j.cpc.2004.12.014

 Frigo, M; Johnson, SG. 
 PROCEEDINGS OF THE IEEE, 93 (2), 216-231 (2005). 
 The design and implementation of FFTW3.
 https://doi.org/10.1109/JPROC.2004.840301

 VandeVondele, J; Hutter, J. 
 JOURNAL OF CHEMICAL PHYSICS, 118 (10), 4365-4369 (2003). 
 An efficient orbital transformation method for electronic structure
 calculations.
 https://doi.org/10.1063/1.1543154

 Hartwigsen, C; Goedecker, S; Hutter, J. 
 PHYSICAL REVIEW B, 58 (7), 3641-3662 (1998). 
 Relativistic separable dual-space Gaussian pseudopotentials from H to Rn.
 https://doi.org/10.1103/PhysRevB.58.3641

 Lippert, G; Hutter, J; Parrinello, M. 
 MOLECULAR PHYSICS, 92 (3), 477-487 (1997). 
 A hybrid Gaussian and plane wave density functional scheme.
 https://doi.org/10.1080/002689797170220

 Goedecker, S; Teter, M; Hutter, J. 
 PHYSICAL REVIEW B, 54 (3), 1703-1710 (1996). 
 Separable dual-space Gaussian pseudopotentials.
 https://doi.org/10.1103/PhysRevB.54.1703

 BECKE, AD. PHYSICAL REVIEW A, 38 (6), 3098-3100 (1988). 
 DENSITY-FUNCTIONAL EXCHANGE-ENERGY APPROXIMATION WITH CORRECT
 ASYMPTOTIC-BEHAVIOR.
 https://doi.org/10.1103/PhysRevA.38.3098

 LEE, CT; YANG, WT; PARR, RG. 
 PHYSICAL REVIEW B, 37 (2), 785-789 (1988). 
 DEVELOPMENT OF THE COLLE-SALVETTI CORRELATION-ENERGY FORMULA INTO A
 FUNCTIONAL OF THE ELECTRON-DENSITY.
 https://doi.org/10.1103/PhysRevB.37.785


 -------------------------------------------------------------------------------
 -                                                                             -
 -                                T I M I N G                                  -
 -                                                                             -
 -------------------------------------------------------------------------------
 SUBROUTINE                       CALLS  ASD         SELF TIME        TOTAL TIME
                                MAXIMUM       AVERAGE  MAXIMUM  AVERAGE  MAXIMUM
 CP2K                                 1  1.0    0.008    0.008   17.076   17.076
 qs_forces                            1  2.0    0.000    0.000   17.013   17.013
 qs_energies                          1  3.0    0.000    0.000   16.454   16.454
 scf_env_do_scf                       1  4.0    0.000    0.000   16.391   16.391
 scf_env_do_scf_inner_loop           28  5.0    0.002    0.002   15.797   15.797
 rebuild_ks_matrix                   29  6.9    0.000    0.000   15.756   15.756
 qs_ks_build_kohn_sham_matrix        29  7.9    0.003    0.003   15.755   15.755
 qs_ks_update_qs_env                 29  6.0    0.000    0.000   15.198   15.198
 xc_vxc_pw_create                    87  9.9    0.356    0.356   12.390   12.390
 low_spin_roks                       29  8.9    0.034    0.034   10.972   10.972
 pw_transfer                       2872 11.9    0.143    0.143    9.097    9.097
 fft_wrap_pw1pw2                   2814 12.9    0.018    0.018    8.934    8.934
 fft_wrap_pw1pw2_170               1770 14.2    0.490    0.490    8.634    8.634
 xc_rho_set_and_dset_create          87 10.9    0.764    0.764    7.626    7.626
 xc_pw_derive                      1044 11.9    0.006    0.006    6.335    6.335
 fft3d_s                           2815 14.9    4.839    4.839    4.850    4.850
 xc_pw_divergence                   174 10.9    0.003    0.003    4.183    4.183
 qs_vxc_create                       29  8.9    0.000    0.000    4.026    4.026
 xc_functional_eval                 174 11.9    0.001    0.001    3.470    3.470
 lyp_lsd_eval                        87 12.9    2.801    2.801    2.801    2.801
 calculate_rho_elec                 174  8.9    0.043    0.043    2.432    2.432
 density_rs2pw                      174  9.9    0.004    0.004    2.091    2.091
 pw_scatter_s                      1421 15.1    1.979    1.979    1.979    1.979
 pw_gather_s                       1393 14.8    1.574    1.574    1.574    1.574
 integrate_v_rspace                 174  9.9    0.004    0.004    1.342    1.342
 potential_pw2rs                    174 10.9    0.006    0.006    1.130    1.130
 pw_derive                         1044 12.9    0.880    0.880    0.880    0.880
 qs_rho_update_rho_low               29  6.0    0.000    0.000    0.851    0.851
 xb88_lsd_eval                       87 12.9    0.668    0.668    0.668    0.668
 init_scf_loop                        1  5.0    0.000    0.000    0.593    0.593
 qs_ks_update_qs_env_forces           1  3.0    0.000    0.000    0.558    0.558
 pw_copy                           1654 12.1    0.482    0.482    0.482    0.482
 sum_up_and_integrate                29  8.9    0.032    0.032    0.470    0.470
 pw_axpy                           1973 11.2    0.429    0.429    0.429    0.429
 dbcsr_multiply_generic            1316 10.8    0.025    0.025    0.399    0.399
 qs_scf_new_mos                      28  6.0    0.000    0.000    0.373    0.373
 qs_scf_loop_do_ot                   28  7.0    0.000    0.000    0.373    0.373
 ot_scf_mini                         28  8.0    0.000    0.000    0.358    0.358
 -------------------------------------------------------------------------------

 The number of warnings for this run is : 0
 
 -------------------------------------------------------------------------------
  **** **** ******  **  PROGRAM ENDED AT                 2022-12-12 18:07:58.935
 ***** ** ***  *** **   PROGRAM RAN ON                           xissand-MS-7A34
 **    ****   ******    PROGRAM RAN BY                                         j
 ***** **    ** ** **   PROGRAM PROCESS ID                                 99152
  **** **  *******  **  PROGRAM STOPPED IN     /home/j/Study/QMComp/HW/3_cp2k/T1
